<?xml version="1.0"?>
<VTKFile type="UnstructuredGrid"  version="0.1"  >
<UnstructuredGrid>
<Piece  NumberOfPoints="760" NumberOfCells="3024">
<Points>
<DataArray  type="Float64"  NumberOfComponents="3"  format="ascii">0 0 0  0.05555555555555555 0 0  0.1111111111111111 0 0  0.1666666666666667 0 0  0.2222222222222222 0 0  0.2777777777777778 0 0  0.3333333333333333 0 0  0.3888888888888889 0 0  0.4444444444444444 0 0  0.5 0 0  0.5555555555555556 0 0  0.6111111111111112 0 0  0.6666666666666666 0 0  0.7222222222222222 0 0  0.7777777777777778 0 0  0.8333333333333334 0 0  0.8888888888888888 0 0  0.9444444444444444 0 0  1 0 0  0 0.01428571428571429 0  0.05555555555555555 0.01428571428571429 0  0.1111111111111111 0.01428571428571429 0  0.1666666666666667 0.01428571428571429 0  0.2222222222222222 0.01428571428571429 0  0.2777777777777778 0.01428571428571429 0  0.3333333333333333 0.01428571428571429 0  0.3888888888888889 0.01428571428571429 0  0.4444444444444444 0.01428571428571429 0  0.5 0.01428571428571429 0  0.5555555555555556 0.01428571428571429 0  0.6111111111111112 0.01428571428571429 0  0.6666666666666666 0.01428571428571429 0  0.7222222222222222 0.01428571428571429 0  0.7777777777777778 0.01428571428571429 0  0.8333333333333334 0.01428571428571429 0  0.8888888888888888 0.01428571428571429 0  0.9444444444444444 0.01428571428571429 0  1 0.01428571428571429 0  0 0.02857142857142857 0  0.05555555555555555 0.02857142857142857 0  0.1111111111111111 0.02857142857142857 0  0.1666666666666667 0.02857142857142857 0  0.2222222222222222 0.02857142857142857 0  0.2777777777777778 0.02857142857142857 0  0.3333333333333333 0.02857142857142857 0  0.3888888888888889 0.02857142857142857 0  0.4444444444444444 0.02857142857142857 0  0.5 0.02857142857142857 0  0.5555555555555556 0.02857142857142857 0  0.6111111111111112 0.02857142857142857 0  0.6666666666666666 0.02857142857142857 0  0.7222222222222222 0.02857142857142857 0  0.7777777777777778 0.02857142857142857 0  0.8333333333333334 0.02857142857142857 0  0.8888888888888888 0.02857142857142857 0  0.9444444444444444 0.02857142857142857 0  1 0.02857142857142857 0  0 0.04285714285714286 0  0.05555555555555555 0.04285714285714286 0  0.1111111111111111 0.04285714285714286 0  0.1666666666666667 0.04285714285714286 0  0.2222222222222222 0.04285714285714286 0  0.2777777777777778 0.04285714285714286 0  0.3333333333333333 0.04285714285714286 0  0.3888888888888889 0.04285714285714286 0  0.4444444444444444 0.04285714285714286 0  0.5 0.04285714285714286 0  0.5555555555555556 0.04285714285714286 0  0.6111111111111112 0.04285714285714286 0  0.6666666666666666 0.04285714285714286 0  0.7222222222222222 0.04285714285714286 0  0.7777777777777778 0.04285714285714286 0  0.8333333333333334 0.04285714285714286 0  0.8888888888888888 0.04285714285714286 0  0.9444444444444444 0.04285714285714286 0  1 0.04285714285714286 0  0 0.05714285714285715 0  0.05555555555555555 0.05714285714285715 0  0.1111111111111111 0.05714285714285715 0  0.1666666666666667 0.05714285714285715 0  0.2222222222222222 0.05714285714285715 0  0.2777777777777778 0.05714285714285715 0  0.3333333333333333 0.05714285714285715 0  0.3888888888888889 0.05714285714285715 0  0.4444444444444444 0.05714285714285715 0  0.5 0.05714285714285715 0  0.5555555555555556 0.05714285714285715 0  0.6111111111111112 0.05714285714285715 0  0.6666666666666666 0.05714285714285715 0  0.7222222222222222 0.05714285714285715 0  0.7777777777777778 0.05714285714285715 0  0.8333333333333334 0.05714285714285715 0  0.8888888888888888 0.05714285714285715 0  0.9444444444444444 0.05714285714285715 0  1 0.05714285714285715 0  0 0.07142857142857142 0  0.05555555555555555 0.07142857142857142 0  0.1111111111111111 0.07142857142857142 0  0.1666666666666667 0.07142857142857142 0  0.2222222222222222 0.07142857142857142 0  0.2777777777777778 0.07142857142857142 0  0.3333333333333333 0.07142857142857142 0  0.3888888888888889 0.07142857142857142 0  0.4444444444444444 0.07142857142857142 0  0.5 0.07142857142857142 0  0.5555555555555556 0.07142857142857142 0  0.6111111111111112 0.07142857142857142 0  0.6666666666666666 0.07142857142857142 0  0.7222222222222222 0.07142857142857142 0  0.7777777777777778 0.07142857142857142 0  0.8333333333333334 0.07142857142857142 0  0.8888888888888888 0.07142857142857142 0  0.9444444444444444 0.07142857142857142 0  1 0.07142857142857142 0  0 0.08571428571428573 0  0.05555555555555555 0.08571428571428573 0  0.1111111111111111 0.08571428571428573 0  0.1666666666666667 0.08571428571428573 0  0.2222222222222222 0.08571428571428573 0  0.2777777777777778 0.08571428571428573 0  0.3333333333333333 0.08571428571428573 0  0.3888888888888889 0.08571428571428573 0  0.4444444444444444 0.08571428571428573 0  0.5 0.08571428571428573 0  0.5555555555555556 0.08571428571428573 0  0.6111111111111112 0.08571428571428573 0  0.6666666666666666 0.08571428571428573 0  0.7222222222222222 0.08571428571428573 0  0.7777777777777778 0.08571428571428573 0  0.8333333333333334 0.08571428571428573 0  0.8888888888888888 0.08571428571428573 0  0.9444444444444444 0.08571428571428573 0  1 0.08571428571428573 0  0 0.1 0  0.05555555555555555 0.1 0  0.1111111111111111 0.1 0  0.1666666666666667 0.1 0  0.2222222222222222 0.1 0  0.2777777777777778 0.1 0  0.3333333333333333 0.1 0  0.3888888888888889 0.1 0  0.4444444444444444 0.1 0  0.5 0.1 0  0.5555555555555556 0.1 0  0.6111111111111112 0.1 0  0.6666666666666666 0.1 0  0.7222222222222222 0.1 0  0.7777777777777778 0.1 0  0.8333333333333334 0.1 0  0.8888888888888888 0.1 0  0.9444444444444444 0.1 0  1 0.1 0  0 0 0.01  0.05555555555555555 0 0.01  0.1111111111111111 0 0.01  0.1666666666666667 0 0.01  0.2222222222222222 0 0.01  0.2777777777777778 0 0.01  0.3333333333333333 0 0.01  0.3888888888888889 0 0.01  0.4444444444444444 0 0.01  0.5 0 0.01  0.5555555555555556 0 0.01  0.6111111111111112 0 0.01  0.6666666666666666 0 0.01  0.7222222222222222 0 0.01  0.7777777777777778 0 0.01  0.8333333333333334 0 0.01  0.8888888888888888 0 0.01  0.9444444444444444 0 0.01  1 0 0.01  0 0.01428571428571429 0.01  0.05555555555555555 0.01428571428571429 0.01  0.1111111111111111 0.01428571428571429 0.01  0.1666666666666667 0.01428571428571429 0.01  0.2222222222222222 0.01428571428571429 0.01  0.2777777777777778 0.01428571428571429 0.01  0.3333333333333333 0.01428571428571429 0.01  0.3888888888888889 0.01428571428571429 0.01  0.4444444444444444 0.01428571428571429 0.01  0.5 0.01428571428571429 0.01  0.5555555555555556 0.01428571428571429 0.01  0.6111111111111112 0.01428571428571429 0.01  0.6666666666666666 0.01428571428571429 0.01  0.7222222222222222 0.01428571428571429 0.01  0.7777777777777778 0.01428571428571429 0.01  0.8333333333333334 0.01428571428571429 0.01  0.8888888888888888 0.01428571428571429 0.01  0.9444444444444444 0.01428571428571429 0.01  1 0.01428571428571429 0.01  0 0.02857142857142857 0.01  0.05555555555555555 0.02857142857142857 0.01  0.1111111111111111 0.02857142857142857 0.01  0.1666666666666667 0.02857142857142857 0.01  0.2222222222222222 0.02857142857142857 0.01  0.2777777777777778 0.02857142857142857 0.01  0.3333333333333333 0.02857142857142857 0.01  0.3888888888888889 0.02857142857142857 0.01  0.4444444444444444 0.02857142857142857 0.01  0.5 0.02857142857142857 0.01  0.5555555555555556 0.02857142857142857 0.01  0.6111111111111112 0.02857142857142857 0.01  0.6666666666666666 0.02857142857142857 0.01  0.7222222222222222 0.02857142857142857 0.01  0.7777777777777778 0.02857142857142857 0.01  0.8333333333333334 0.02857142857142857 0.01  0.8888888888888888 0.02857142857142857 0.01  0.9444444444444444 0.02857142857142857 0.01  1 0.02857142857142857 0.01  0 0.04285714285714286 0.01  0.05555555555555555 0.04285714285714286 0.01  0.1111111111111111 0.04285714285714286 0.01  0.1666666666666667 0.04285714285714286 0.01  0.2222222222222222 0.04285714285714286 0.01  0.2777777777777778 0.04285714285714286 0.01  0.3333333333333333 0.04285714285714286 0.01  0.3888888888888889 0.04285714285714286 0.01  0.4444444444444444 0.04285714285714286 0.01  0.5 0.04285714285714286 0.01  0.5555555555555556 0.04285714285714286 0.01  0.6111111111111112 0.04285714285714286 0.01  0.6666666666666666 0.04285714285714286 0.01  0.7222222222222222 0.04285714285714286 0.01  0.7777777777777778 0.04285714285714286 0.01  0.8333333333333334 0.04285714285714286 0.01  0.8888888888888888 0.04285714285714286 0.01  0.9444444444444444 0.04285714285714286 0.01  1 0.04285714285714286 0.01  0 0.05714285714285715 0.01  0.05555555555555555 0.05714285714285715 0.01  0.1111111111111111 0.05714285714285715 0.01  0.1666666666666667 0.05714285714285715 0.01  0.2222222222222222 0.05714285714285715 0.01  0.2777777777777778 0.05714285714285715 0.01  0.3333333333333333 0.05714285714285715 0.01  0.3888888888888889 0.05714285714285715 0.01  0.4444444444444444 0.05714285714285715 0.01  0.5 0.05714285714285715 0.01  0.5555555555555556 0.05714285714285715 0.01  0.6111111111111112 0.05714285714285715 0.01  0.6666666666666666 0.05714285714285715 0.01  0.7222222222222222 0.05714285714285715 0.01  0.7777777777777778 0.05714285714285715 0.01  0.8333333333333334 0.05714285714285715 0.01  0.8888888888888888 0.05714285714285715 0.01  0.9444444444444444 0.05714285714285715 0.01  1 0.05714285714285715 0.01  0 0.07142857142857142 0.01  0.05555555555555555 0.07142857142857142 0.01  0.1111111111111111 0.07142857142857142 0.01  0.1666666666666667 0.07142857142857142 0.01  0.2222222222222222 0.07142857142857142 0.01  0.2777777777777778 0.07142857142857142 0.01  0.3333333333333333 0.07142857142857142 0.01  0.3888888888888889 0.07142857142857142 0.01  0.4444444444444444 0.07142857142857142 0.01  0.5 0.07142857142857142 0.01  0.5555555555555556 0.07142857142857142 0.01  0.6111111111111112 0.07142857142857142 0.01  0.6666666666666666 0.07142857142857142 0.01  0.7222222222222222 0.07142857142857142 0.01  0.7777777777777778 0.07142857142857142 0.01  0.8333333333333334 0.07142857142857142 0.01  0.8888888888888888 0.07142857142857142 0.01  
[...]
<PointData  Vectors="f_33"> 
<DataArray  type="Float64"  Name="f_33"  NumberOfComponents="3" format="ascii">0.0000000000000000e+00 0.0000000000000000e+00 0.0000000000000000e+00  -8.8363423041654034e-04 -9.0122585277872379e-05 -1.1946452720708704e-03  -1.6549123945937261e-03 -9.2724296890408202e-05 -4.5729922613664724e-03  -2.3615002073393105e-03 -9.5517780919455200e-05 -9.9900698336084157e-03  -3.0034263969991011e-03 -1.0825329363034174e-04 -1.7257609649673850e-02  -3.5813326809550120e-03 -1.3332599507098598e-04 -2.6196914712431619e-02  -4.0958103658192526e-03 -1.7069146327779484e-04 -3.6632515165630208e-02  -4.5478339296451623e-03 -2.1952974819798739e-04 -4.8391719226180324e-02  -4.9388437390999636e-03 -2.7877343200981969e-04 -6.1305288542101023e-02  -5.2707975234207857e-03 -3.4729986964867173e-04 -7.5208560483472381e-02  -5.5462305951694563e-03 -4.2400620102371703e-04 -8.9942854883810402e-02  -5.7683193422850571e-03 -5.0784109927957965e-04 -1.0535710947721516e-01  -5.9409418309976569e-03 -5.9781958193659513e-04 -1.2130971311521545e-01  -6.0687320853591489e-03 -6.9303052363718230e-04 -1.3767051176813822e-01  -6.1571261313306622e-03 -7.9264035972920763e-04 -1.5432296229750014e-01  -6.2123991533351158e-03 -8.9589388842758859e-04 -1.7116640755245652e-01  -6.2416975554095370e-03 -1.0021119975368237e-03 -1.8811844634188080e-01  -6.2530820786923010e-03 -1.1106903345490826e-03 -2.0511739296971013e-01  -6.2555360338419300e-03 -1.2210858642721452e-03 -2.2212503351732257e-01  0.0000000000000000e+00 0.0000000000000000e+00 0.0000000000000000e+00  -8.2848599249525081e-04 -4.5380715929560152e-05 -1.2291211352285750e-03  -1.6024804830624716e-03 -5.2769149797686817e-05 -4.5970783432936228e-03  -2.3097972416108951e-03 -5.9191625156937295e-05 -9.9895597199089869e-03  -2.9526796456849774e-03 -7.5490442081602171e-05 -1.7229870688258500e-02  -3.5318013140630891e-03 -1.0408679818969641e-04 -2.6142556331872756e-02  -4.0477539091177024e-03 -1.4492293361459806e-04 -3.6553235315195991e-02  -4.5014903549483922e-03 -1.9715492279274757e-04 -4.8289610231677042e-02  -4.8944138006609206e-03 -2.5968751585459914e-04 -6.1182592408418453e-02  -5.2284331194402539e-03 -3.3136685552892151e-04 -7.5067572342097877e-02  -5.5060259156060297e-03 -4.1105534721682318e-04 -8.9785878444710740e-02  -5.7303036352445002e-03 -4.9766354646485771e-04 -1.0518643005633496e-01  -5.9050733150749464e-03 -5.9016531658275559e-04 -1.2112757540540613e-01  -6.0348928937089125e-03 -6.8760581926408766e-04 -1.3747909752306778e-01  -6.1251182578244689e-03 -7.8910582808677636e-04 -1.5412436603720692e-01  -6.1819410134069091e-03 -8.9386333728972279e-04 -1.7096260909305258e-01  -6.2124187919231303e-03 -1.0011525669211736e-03 -1.8791127769983063e-01  -6.2245174959752051e-03 -1.1103280313855101e-03 -2.0490848886988414e-01  -6.2272515561232816e-03 -1.2209028220958888e-03 -2.2191572222350162e-01  0.0000000000000000e+00 0.0000000000000000e+00 0.0000000000000000e+00  -8.1011664839560147e-04 -1.1554776651698797e-05 -1.2415816397033559e-03  -1.5766024481845167e-03 -1.4634027064532638e-05 -4.5962894902385875e-03  -2.2810299372170010e-03 -2.2381700564510813e-05 -9.9650685184386849e-03  -2.9221693644224792e-03 -4.1513889673677957e-05 -1.7180149581143535e-02  -3.5001172433365411e-03 -7.3444096200745216e-05 -2.6068442280789687e-02  -4.0152943785635720e-03 -1.1774564762204593e-04 -3.6456459051540602e-02  -4.4685831566786682e-03 -1.7343233649699539e-04 -4.8172236453851928e-02  -4.8613434437124441e-03 -2.3934021147388194e-04 -6.1046804046932010e-02  -5.1954465408462006e-03 -3.1426933702915187e-04 -7.4915580743321664e-02  -5.4733317276855070e-03 -3.9704171294349113e-04 -8.9619879392676988e-02  -5.6980693106895323e-03 -4.8652739959223701e-04 -1.0500857554117826e-01  -5.8734218912155772e-03 -5.8165785646142930e-04 -1.2093994968885058e-01  -6.0038998389338105e-03 -6.8143361284115646e-04 -1.3728369319913186e-01  -6.0948087153558841e-03 -7.8492896185604517e-04 -1.5392305850091104e-01  -6.1522870887451894e-03 -8.9129452740232575e-04 -1.7075712867699991e-01  -6.1833347913477065e-03 -9.9975776691442757e-04 -1.8770317830694036e-01  -6.1958493504403744e-03 -1.1096284060659381e-03 -2.0469910852261652e-01  -6.1987780709073089e-03 -1.2204151606332518e-03 -2.2170610573591318e-01  0.0000000000000000e+00 0.0000000000000000e+00 0.0000000000000000e+00  -7.9833857465100300e-04 1.6741229299419849e-05 -1.2361007836665223e-03  -1.5570837772788304e-03 2.1159891893923383e-05 -4.5700760456293330e-03  -2.2581241785129802e-03 1.3977293126380922e-05 -9.9149036635235062e-03  -2.8970629255876874e-03 -7.2787757526637873e-06 -1.7106321426073875e-02  -3.4733241403003086e-03 -4.2288422400776709e-05 -2.5972423703373278e-02  -3.9871919086929414e-03 -8.9980754961891535e-05 -3.6340172902335738e-02  -4.4394982808075500e-03 -1.4911642267138316e-04 -4.8037776762495703e-02  -4.8315698125542244e-03 -2.1842064093101758e-04 -6.0896312546275810e-02  -5.1652469231077891e-03 -2.9663160532798815e-04 -7.4751187054806933e-02  -5.4429365063907078e-03 -3.8252493985947234e-04 -8.9443666177579984e-02  -5.6676737691176175e-03 -4.7492789042838135e-04 -1.0482255207593384e-01  -5.8431832728868842e-03 -5.7272851886895518e-04 -1.2074602723678828e-01  -5.9739346081838663e-03 -6.7488217298147064e-04 -1.3708365969515746e-01  -6.0651901762206108e-03 -7.8041624190319033e-04 -1.5371855174641721e-01  -6.1230432378739270e-03 -8.8843363429055703e-04 -1.7054960791446408e-01  -6.1544448386166616e-03 -9.9811469462983480e-04 -1.8749389411645231e-01  -6.1672332423426957e-03 -1.1087218231107744e-03 -2.0448906850048043e-01  -6.1702891804098162e-03 -1.2197072285911803e-03 -2.2149600382087165e-01  0.0000000000000000e+00 0.0000000000000000e+00 0.0000000000000000e+00  -7.8542544477064845e-04 4.3219347282498366e-05 -1.2141652461075954e-03  -1.5382138483207399e-03 5.5632971314459587e-05 -4.5196983548094205e-03  -2.2365518378020637e-03 4.9816731148619085e-05 -9.8392282701136018e-03  -2.8734924079033431e-03 2.6862389069311055e-05 -1.7008138058861279e-02  -3.4480655673440083e-03 -1.1041197132532960e-05 -2.5854104984616627e-02  -3.9605431856991101e-03 -6.2048362701294806e-05 -3.6203946868628017e-02  -4.4117560021915241e-03 -1.2460373271865795e-04 -4.7885812713015466e-02  -4.8030151772847250e-03 -1.9729486587243073e-04 -6.0730728662069647e-02  -5.1361372058568886e-03 -2.7878742660876211e-04 -7.4574037523736356e-02  -5.4134996422820500e-03 -3.6780661465492226e-04 -8.9256922258032487e-02  -5.6381042534489959e-03 -4.6313538796445385e-04 -1.0462808011219003e-01  -5.8136387958222582e-03 -5.6361789577037854e-04 -1.2054556432480239e-01  -5.9445332611470711e-03 -6.6816410619366341e-04 -1.3687878733487516e-01  -6.0360081905182677e-03 -7.7575433888817720e-04 -1.5351066783383566e-01  -6.0941133572177996e-03 -8.8544347150051200e-04 -1.7033989762250037e-01  -6.1257547362830620e-03 -9.9636413098109188e-04 -1.8728330051877906e-01  -6.1387179537911373e-03 -1.1077286396951496e-03 -2.0427826125904772e-01  -6.1418355897670711e-03 -1.2188955993811673e-03 -2.2128532747897478e-01  0.0000000000000000e+00 0.0000000000000000e+00 0.0000000000000000e+00  -7.6835046403274550e-04 7.0990237170202270e-05 -1.1750507602283733e-03  -1.5170925629485615e-03 9.0448289142595065e-05 -4.4450436001416179e-03  -2.2137718234634691e-03 8.5741086729747818e-05 -9.7379837911814471e-03  -2.8491696609137529e-03 6.1062547827591212e-05 -1.6885457376114802e-02  -3.4222894529905104e-03 2.0283612407380353e-05 -2.5713294744140951e-02  -3.9335300299226609e-03 -3.4023108628002463e-05 -3.6047577681992640e-02  -4.3837679901999153e-03 -9.9991094964682939e-05 -4.7716148617413474e-02  -4.7743151499384457e-03 -1.7606806086479726e-04 -6.0549872825475151e-02  -5.1069691587231356e-03 -2.6084544942162692e-04 -7.4383972146084637e-02  -5.3840791108438601e-03 -3.5299727081873546e-04 -8.9059508446250962e-02  -5.6086125267909666e-03 -4.5126190203278289e-04 -1.0442504155739230e-01  -5.7842188713470325e-03 -5.5443945060565554e-04 -1.2033846373416723e-01  -5.9152867934555127e-03 -6.6139438197274851e-04 -1.3666899920636658e-01  -6.0069931763991179e-03 -7.7105970411716219e-04 -1.5329934923004518e-01  -6.0653427567669031e-03 -8.8244165655372792e-04 -1.7012795809154749e-01  -6.0971969878704521e-03 -9.9462402987515373e-04 -1.8707137263319770e-01  -6.1102930569539122e-03 -1.1067659534953606e-03 -2.0406667153618427e-01  -6.1134289801785943e-03 -1.2181060799812617e-03 -2.2107407092625297e-01  0.0000000000000000e+00 0.0000000000000000e+00 0.0000000000000000e+00  -7.4295575122050508e-04 1.0269598380505601e-04 -1.1152473277894705e-03  -1.4890264239877688e-03 1.2717455558900300e-04 -4.3442323049073771e-03  -2.1850903311689232e-03 1.2249877417447251e-04 -9.6102442930850428e-03  -2.8196150414239911e-03 9.5646739192500896e-05 -1.6737679312601922e-02  -3.3918651120120979e-03 5.1824682655825325e-05 -2.5549532402289077e-02  -3.9024247638194168e-03 -5.8476794606075238e-06 -3.5870688946428766e-02  -4.3522262855732394e-03 -7.5260090633108177e-05 -4.7528474577955462e-02  -4.7425821746876510e-03 -1.5474426322500804e-04 -6.0353494833639935e-02  -5.0752681132805689e-03 -2.4282592244813668e-04 -7.4180796724064288e-02  -5.3526000105081897e-03 -3.3813096881885448e-04 -8.8851283479451690e-02  -5.5775054072717632e-03 -4.3935426008372933e-04 -1.0421334474726501e-01  -5.7535890499842528e-03 -5.4525211305422904e-04 -1.2012467943976979e-01  -5.8851913158091979e-03 -6.5464336185104327e-04 -1.3645429016477562e-01  -5.9774381355960134e-03 -7.6641330142717518e-04 -1.5308462597201408e-01  -6.0362815589495872e-03 -8.7951864876628357e-04 -1.6991384755903485e-01  -6.0685320435242352e-03 -9.9299282193168531e-04 -1.8685818761077022e-01  -6.0818775376690155e-03 -1.1059414823226864e-03 -2.0385438283820029e-01  -6.0850602089847971e-03 -1.2174594982367628e-03 -2.2086231251450353e-01  0.0000000000000000e+00 0.0000000000000000e+00 0.0000000000000000e+00  -6.9240264517774451e-04 1.3616073825750740e-04 -1.0331404004023201e-03  -1.4353594805337354e-03 1.6371267470091633e-04 -4.2176591119077681e-03  -2.1321875293258698e-03 1.5802286582294170e-04 -9.4574246017036356e-03  -2.7675891352559887e-03 1.2862821402877809e-04 -1.6566505379118197e-02  -3.3410061434900793e-03 8.1739771032121570e-05 -2.5364543002006190e-02  -3.8530355557887847e-03 2.0817935886888919e-05 -3.5674925912095756e-02  -4.3045725066549094e-03 -5.1873142469766266e-05 -4.7324316960229477e-02  -4.6968828989773590e-03 -1.3458608433775362e-04 -6.0142987781199808e-02  -5.0316906018255583e-03 -2.2579637434757519e-04 -7.3965766366154498e-02  -5.3112536356141951e-03 -3.2408906568302511e-04 -8.8633363834490692e-02  -5.5384353319972842e-03 -4.2811968152242560e-04 -1.0399396893394267e-01  -5.7167703365868803e-03 -5.3660380773985382e-04 -1.1990505626767244e-01  -5.8505237815087083e-03 -6.4831730682599824e-04 -1.3623537464507868e-01  -5.9447421000250718e-03 -7.6210024139086263e-04 -1.5286708738312549e-01  -6.0052946676017824e-03 -8.7686200740466180e-04 -1.6969803675752812e-01  -6.0389073665653922e-03 -9.9158594261444452e-04 -1.8664410454350211e-01  -6.0532011246976674e-03 -1.1053359401641976e-03 -2.0364163396868026e-01  -6.0567311745340366e-03 -1.2170273020484000e-03 -2.2065016231946041e-01  0.0000000000000000e+00 0.0000000000000000e+00 0.0000000000000000e+00  -4.3599825929006879e-04 -5.9278714293873179e-05 -1.1569860260975066e-03  -8.3163436426865152e-04 -6.9514282039585492e-05 -4.5380589080896549e-03  -1.1927377190987327e-03 -9.0597637645007311e-05 -9.9578967794909223e-03  -1.5210466327470738e-03 -1.2312311027758431e-04 -1.7228329663523508e-02  -1.8168646201683768e-03 -1.6741135279509304e-04 -2.6170560268326711e-02  -2.0804178493680522e-03 -2.2274438397347520e-04 -3.6609076408729346e-02  -2.3121661600708486e-03 -2.8805456018780049e-04 -4.8371155606136577e-02  -2.5128271608549093e-03 -3.6217724217471527e-04 -6.1287533595667076e-02  -2.6833889721359591e-03 -4.4395223202981491e-04 -7.5193522092372206e-02  -2.8251344089437838e-03 -5.3226705440949005e-04 -8.9930413409774979e-02  -2.9396701935572298e-03 -6.2607814324179220e-04 -1.0534711519029369e-01  -3.0289560576459941e-03 -7.2442302592353586e-04 -1.2130198355356633e-01  -3.0953312021295416e-03 -8.2642821474297073e-04 -1.3766482930536497e-01  -3.1415368860656014e-03 -9.3131449216527125e-04 -1.5431907202930650e-01  -3.1707348345068414e-03 -1.0384001198866146e-03 -1.7116401549912760e-01  -3.1865231766066838e-03 -1.1471028473329097e-03 -1.8811721750017257e-01  -3.1929564881871680e-03 -1.2569498736576727e-03 -2.0511694703977612e-01  -3.1945166439188832e-03 -1.3675906364335971e-03 -2.2212483662044702e-01  0.0000000000000000e+00 0.0000000000000000e+00 0.0000000000000000e+00  -4.1156841269599599e-04 -2.9736080627684665e-05 -1.1883536908493808e-03  -8.1061096314088933e-04 -4.5181660426835473e-05 -4.5623928171376945e-03  -1.1697987742945277e-03 -6.8389910175882686e-05 -9.9579039063837603e-03  -1.4963691420732718e-03 -1.0303230389033369e-04 -1.7201143576151517e-02  -1.7906793270681743e-03 -1.4943327714648196e-04 -2.6116714629618547e-02  -2.0530016370926964e-03 -2.0685858157468081e-04 -3.6530246448733518e-02  -2.2838033269417042e-03 -2.7422108336415006e-04 -4.8269427513983637e-02  -2.4837891765557398e-03 -3.5033748348763035e-04 -6.1165149582874667e-02  -2.6539232945028551e-03 -4.3402830537760752e-04 -7.5052780398543795e-02  -2.7954577318244837e-03 -5.2416026281341401e-04 -8.9773622521968091e-02  -2.9099637293590963e-03 -6.1966717626482767e-04 -1.0517656643237248e-01  -2.9993619077771606e-03 -7.1956221731266968e-04 -1.2111992870905589e-01  -3.0659494915540376e-03 -8.2294601491582158e-04 -1.3747345825793106e-01  -3.1124235354090066e-03 -9.2901224100624177e-04 -1.5412048847134704e-01  -3.1418996118433079e-03 -1.0370511495516909e-03 -1.7096020954898294e-01  -3.1579265137728521e-03 -1.1464519083301190e-03 -1.8791003301267345e-01  -3.1645060102043895e-03 -1.2567137465891570e-03 -2.0490803185372625e-01  -3.1661518176556765e-03 -1.3675052251995612e-03 -2.2191556995231920e-01  0.0000000000000000e+00 0.0000000000000000e+00 0.0000000000000000e+00  -3.9937621229562564e-04 -1.0170848287986864e-05 -1.2004845293597324e-03  -7.9317333047949012e-04 -2.4186906137406491e-05 -4.5609079375062821e-03  -1.1496744083942757e-03 -4.8337195442452317e-05 -9.9334039954520111e-03  -1.4739724975418680e-03 -8.4605503016439734e-05 -1.7151621552011644e-02  -1.7663975770126044e-03 -1.3283894290596582e-04 -2.6042851915006566e-02  -2.0271752339919976e-03 -1.9214812619145407e-04 -3.6433719303791606e-02  -2.2567470838633355e-03 -2.6138235086310837e-04 -4.8152282394542632e-02  -2.4557949255522397e-03 -3.3932574373499765e-04 -6.1029563905292711e-02  -2.6252572413326442e-03 -4.2477558999299783e-04 -7.4900964723256747e-02  -2.7663570910096344e-03 -5.1657744969944559e-04 -8.9607773756242778e-02  -2.8806334421730357e-03 -6.1364360731099704e-04 -1.0499883856746629e-01  -2.9699716573801716e-03 -7.1496455859283302e-04 -1.2093240849465502e-01  -3.0366311217024026e-03 -8.1961701793920581e-04 -1.3727814110468436e-01  -3.0832688836674180e-03 -9.2676971851282707e-04 -1.5391925284387403e-01  -3.1129584034693082e-03 -1.0356873929210609e-03 -1.7075478907424146e-01  -3.1292027207467663e-03 -1.1457334397170769e-03 -1.8770198525371226e-01  -3.1359517076365944e-03 -1.2563797780629753e-03 -2.0469869927206760e-01  -3.1376948587321378e-03 -1.3672841715425218e-03 -2.2170601330522452e-01  0.0000000000000000e+00 0.0000000000000000e+00 0.0000000000000000e+00  -3.9113967960707351e-04 5.3791646648988153e-06 -1.1949875592349197e-03  -7.7884432697047327e-04 -5.4851544454603982e-06 -4.5343821747236591e-03  -1.1321628498334746e-03 -2.9568099477379024e-05 -9.8831854786264745e-03  -1.4539417073686151e-03 -6.6979025945579788e-05 -1.7077892090668300e-02  -1.7442426590504904e-03 -1.1681919414133537e-04 -2.5946982988843317e-02  -2.0032349807538592e-03 -1.7788248490369153e-04 -3.6317588865108358e-02  -2.2313387998544789e-03 -2.4889517200000713e-04 -4.8017967121007490e-02  -2.4292157712067354e-03 -3.2858770219462003e-04 -6.0879199754430235e-02  -2.5977812249650457e-03 -4.1572699749252022e-04 -7.4736680135739822e-02  -2.7382317581019612e-03 -5.0913536005321909e-04 -8.9431652071096365e-02  -2.8520767792394332e-03 -6.0770330125091226e-04 -1.0481289055301153e-01  -2.9411693080670241e-03 -7.1039911861729102e-04 -1.2073854731490774e-01  -3.0077339782255473e-03 -8.1627637208618869e-04 -1.3707815683893140e-01  -3.0543910623273668e-03 -9.2447975621699524e-04 -1.5371478560689517e-01  -3.0841754313937933e-03 -1.0342495724933573e-03 -1.7054730056490258e-01  -3.1005487522312337e-03 -1.1449247757585625e-03 -1.8749272884071896e-01  -3.1074130679594452e-03 -1.2559494055091930e-03 -2.0448868652041044e-01  -3.1092191223517701e-03 -1.3669401755969550e-03 -2.2149594935901798e-01  0.0000000000000000e+00 0.0000000000000000e+00 0.0000000000000000e+00  -3.8277438736272583e-04 1.9561659168074194e-05 -1.1736192700356883e-03  -7.6518172229847546e-04 1.2054307846392194e-05 -4.4841150590285541e-03  -1.1154427766862107e-03 -1.1474710653375990e-05 -9.8075716027603583e-03  -1.4347512007108563e-03 -4.9763101761479883e-05 -1.6979821449798239e-02  -1.7228999646939013e-03 -1.0107228755572445e-04 -2.5828799593250518e-02  -1.9800506089149737e-03 -1.6381249248229639e-04 -3.6181495914943025e-02  -2.2066197959385559e-03 -2.3655223549022423e-04 -4.7866122794877300e-02  -2.4032553761279764e-03 -3.1795402112623971e-04 -6.0713718404645033e-02  -2.5708520994922341e-03 -4.0674904526346212e-04 -7.4559615349593517e-02  -2.7105814029600305e-03 -5.0173455527341274e-04 -8.9244975909786667e-02  -2.8239239975808182e-03 -6.0177886405377219e-04 -1.0461847082034091e-01  -2.9127012987266040e-03 -7.0582815948267862e-04 -1.2053812292173617e-01  -2.9791039270641029e-03 -8.1291311535155346e-04 -1.3687331133118730e-01  -3.0257161867009181e-03 -9.2215469890169011e-04 -1.5350691910482181e-01  -3.0555355435986655e-03 -1.0327691011537187e-03 -1.7033760061099368e-01  -3.0719849787336625e-03 -1.1440712666807747e-03 -1.8728214117450023e-01  -3.0789225393190005e-03 -1.2554763510519810e-03 -2.0427788493675206e-01  -3.0807571425517841e-03 -1.3665374868744634e-03 -2.2128528626305854e-01  0.0000000000000000e+00 0.0000000000000000e+00 0.0000000000000000e+00  -3.7243980634518449e-04 3.4341491811878869e-05 -1.1359364099565138e-03  -7.5040491272427602e-04 2.9561972724397002e-05 -4.4101287086797877e-03  -1.0980242923916237e-03 6.5149218068603964e-06 -9.7067149684006669e-03  -1.4150488071667606e-03 -3.2632877262854592e-05 -1.6857453770472861e-02  -1.7011494663339282e-03 -8.5379229783903260e-05 -2.5688263456590848e-02  -1.9565361314354637e-03 -1.4977113172633864e-04 -3.6025365316214891e-02  -2.1816378162132408e-03 -2.2421962602143508e-04 -4.7696661598219905e-02  -2.3770928137608460e-03 -3.0731705265912379e-04 -6.0533030360549550e-02  -2.5437763036490245e-03 -3.9775765071520638e-04 -7.4369684152930993e-02  -2.6828344068961494e-03 -4.9431316697415902e-04 -8.9047664837539897e-02  -2.7957184775536997e-03 -5.9582962687638422e-04 -1.0441550625824267e-01  -2.8842174398976562e-03 -7.0123113978098417e-04 -1.2033107072523373e-01  -2.9504869166062098e-03 -8.0952553407855640e-04 -1.3666354957064256e-01  -2.9970742389100295e-03 -9.1981002362567690e-04 -1.5329560883272894e-01  -3.0269386780660771e-03 -1.0312764891888648e-03 -1.7012565574772917e-01  -3.0434654119357273e-03 -1.1432157260106188e-03 -1.8707019899125274e-01  -3.0504712816780280e-03 -1.2550134916540191e-03 -2.0406627846732106e-01  -3.0523163244154726e-03 -1.3661435521408281e-03 -2.2107401669466958e-01  0.0000000000000000e+00 0.0000000000000000e+00 0.0000000000000000e+00  -3.5864678785345170e-04 5.2030037753864476e-05 -1.0787991608372989e-03  -7.3259207195791815e-04 4.8570442145818233e-05 -4.3107750471862915e-03  -1.0779364855316475e-03 2.5411085010721377e-05 -9.5799454908635315e-03  -1.3929092367685352e-03 -1.4864098480073450e-05 -1.6710427797987412e-02  -1.6771895918268746e-03 -6.9173214564148346e-05 -2.5525119490287292e-02  -1.9310483897748562e-03 -1.3529077043763149e-04 -3.5848993066300842e-02  -2.1549206671146910e-03 -2.1150489049430