<?xml version="1.0"?>
<VTKFile type="UnstructuredGrid"  version="0.1"  >
<UnstructuredGrid>
<Piece  NumberOfPoints="760" NumberOfCells="3024">
<Points>
<DataArray  type="Float64"  NumberOfComponents="3"  format="ascii">0 0 0  0.05555555555555555 0 0  0.1111111111111111 0 0  0.1666666666666667 0 0  0.2222222222222222 0 0  0.2777777777777778 0 0  0.3333333333333333 0 0  0.3888888888888889 0 0  0.4444444444444444 0 0  0.5 0 0  0.5555555555555556 0 0  0.6111111111111112 0 0  0.6666666666666666 0 0  0.7222222222222222 0 0  0.7777777777777778 0 0  0.8333333333333334 0 0  0.8888888888888888 0 0  0.9444444444444444 0 0  1 0 0  0 0.01428571428571429 0  0.05555555555555555 0.01428571428571429 0  0.1111111111111111 0.01428571428571429 0  0.1666666666666667 0.01428571428571429 0  0.2222222222222222 0.01428571428571429 0  0.2777777777777778 0.01428571428571429 0  0.3333333333333333 0.01428571428571429 0  0.3888888888888889 0.01428571428571429 0  0.4444444444444444 0.01428571428571429 0  0.5 0.01428571428571429 0  0.5555555555555556 0.01428571428571429 0  0.6111111111111112 0.01428571428571429 0  0.6666666666666666 0.01428571428571429 0  0.7222222222222222 0.01428571428571429 0  0.7777777777777778 0.01428571428571429 0  0.8333333333333334 0.01428571428571429 0  0.8888888888888888 0.01428571428571429 0  0.9444444444444444 0.01428571428571429 0  1 0.01428571428571429 0  0 0.02857142857142857 0  0.05555555555555555 0.02857142857142857 0  0.1111111111111111 0.02857142857142857 0  0.1666666666666667 0.02857142857142857 0  0.2222222222222222 0.02857142857142857 0  0.2777777777777778 0.02857142857142857 0  0.3333333333333333 0.02857142857142857 0  0.3888888888888889 0.02857142857142857 0  0.4444444444444444 0.02857142857142857 0  0.5 0.02857142857142857 0  0.5555555555555556 0.02857142857142857 0  0.6111111111111112 0.02857142857142857 0  0.6666666666666666 0.02857142857142857 0  0.7222222222222222 0.02857142857142857 0  0.7777777777777778 0.02857142857142857 0  0.8333333333333334 0.02857142857142857 0  0.8888888888888888 0.02857142857142857 0  0.9444444444444444 0.02857142857142857 0  1 0.02857142857142857 0  0 0.04285714285714286 0  0.05555555555555555 0.04285714285714286 0  0.1111111111111111 0.04285714285714286 0  0.1666666666666667 0.04285714285714286 0  0.2222222222222222 0.04285714285714286 0  0.2777777777777778 0.04285714285714286 0  0.3333333333333333 0.04285714285714286 0  0.3888888888888889 0.04285714285714286 0  0.4444444444444444 0.04285714285714286 0  0.5 0.04285714285714286 0  0.5555555555555556 0.04285714285714286 0  0.6111111111111112 0.04285714285714286 0  0.6666666666666666 0.04285714285714286 0  0.7222222222222222 0.04285714285714286 0  0.7777777777777778 0.04285714285714286 0  0.8333333333333334 0.04285714285714286 0  0.8888888888888888 0.04285714285714286 0  0.9444444444444444 0.04285714285714286 0  1 0.04285714285714286 0  0 0.05714285714285715 0  0.05555555555555555 0.05714285714285715 0  0.1111111111111111 0.05714285714285715 0  0.1666666666666667 0.05714285714285715 0  0.2222222222222222 0.05714285714285715 0  0.2777777777777778 0.05714285714285715 0  0.3333333333333333 0.05714285714285715 0  0.3888888888888889 0.05714285714285715 0  0.4444444444444444 0.05714285714285715 0  0.5 0.05714285714285715 0  0.5555555555555556 0.05714285714285715 0  0.6111111111111112 0.05714285714285715 0  0.6666666666666666 0.05714285714285715 0  0.7222222222222222 0.05714285714285715 0  0.7777777777777778 0.05714285714285715 0  0.8333333333333334 0.05714285714285715 0  0.8888888888888888 0.05714285714285715 0  0.9444444444444444 0.05714285714285715 0  1 0.05714285714285715 0  0 0.07142857142857142 0  0.05555555555555555 0.07142857142857142 0  0.1111111111111111 0.07142857142857142 0  0.1666666666666667 0.07142857142857142 0  0.2222222222222222 0.07142857142857142 0  0.2777777777777778 0.07142857142857142 0  0.3333333333333333 0.07142857142857142 0  0.3888888888888889 0.07142857142857142 0  0.4444444444444444 0.07142857142857142 0  0.5 0.07142857142857142 0  0.5555555555555556 0.07142857142857142 0  0.6111111111111112 0.07142857142857142 0  0.6666666666666666 0.07142857142857142 0  0.7222222222222222 0.07142857142857142 0  0.7777777777777778 0.07142857142857142 0  0.8333333333333334 0.07142857142857142 0  0.8888888888888888 0.07142857142857142 0  0.9444444444444444 0.07142857142857142 0  1 0.07142857142857142 0  0 0.08571428571428573 0  0.05555555555555555 0.08571428571428573 0  0.1111111111111111 0.08571428571428573 0  0.1666666666666667 0.08571428571428573 0  0.2222222222222222 0.08571428571428573 0  0.2777777777777778 0.08571428571428573 0  0.3333333333333333 0.08571428571428573 0  0.3888888888888889 0.08571428571428573 0  0.4444444444444444 0.08571428571428573 0  0.5 0.08571428571428573 0  0.5555555555555556 0.08571428571428573 0  0.6111111111111112 0.08571428571428573 0  0.6666666666666666 0.08571428571428573 0  0.7222222222222222 0.08571428571428573 0  0.7777777777777778 0.08571428571428573 0  0.8333333333333334 0.08571428571428573 0  0.8888888888888888 0.08571428571428573 0  0.9444444444444444 0.08571428571428573 0  1 0.08571428571428573 0  0 0.1 0  0.05555555555555555 0.1 0  0.1111111111111111 0.1 0  0.1666666666666667 0.1 0  0.2222222222222222 0.1 0  0.2777777777777778 0.1 0  0.3333333333333333 0.1 0  0.3888888888888889 0.1 0  0.4444444444444444 0.1 0  0.5 0.1 0  0.5555555555555556 0.1 0  0.6111111111111112 0.1 0  0.6666666666666666 0.1 0  0.7222222222222222 0.1 0  0.7777777777777778 0.1 0  0.8333333333333334 0.1 0  0.8888888888888888 0.1 0  0.9444444444444444 0.1 0  1 0.1 0  0 0 0.01  0.05555555555555555 0 0.01  0.1111111111111111 0 0.01  0.1666666666666667 0 0.01  0.2222222222222222 0 0.01  0.2777777777777778 0 0.01  0.3333333333333333 0 0.01  0.3888888888888889 0 0.01  0.4444444444444444 0 0.01  0.5 0 0.01  0.5555555555555556 0 0.01  0.6111111111111112 0 0.01  0.6666666666666666 0 0.01  0.7222222222222222 0 0.01  0.7777777777777778 0 0.01  0.8333333333333334 0 0.01  0.8888888888888888 0 0.01  0.9444444444444444 0 0.01  1 0 0.01  0 0.01428571428571429 0.01  0.05555555555555555 0.01428571428571429 0.01  0.1111111111111111 0.01428571428571429 0.01  0.1666666666666667 0.01428571428571429 0.01  0.2222222222222222 0.01428571428571429 0.01  0.2777777777777778 0.01428571428571429 0.01  0.3333333333333333 0.01428571428571429 0.01  0.3888888888888889 0.01428571428571429 0.01  0.4444444444444444 0.01428571428571429 0.01  0.5 0.01428571428571429 0.01  0.5555555555555556 0.01428571428571429 0.01  0.6111111111111112 0.01428571428571429 0.01  0.6666666666666666 0.01428571428571429 0.01  0.7222222222222222 0.01428571428571429 0.01  0.7777777777777778 0.01428571428571429 0.01  0.8333333333333334 0.01428571428571429 0.01  0.8888888888888888 0.01428571428571429 0.01  0.9444444444444444 0.01428571428571429 0.01  1 0.01428571428571429 0.01  0 0.02857142857142857 0.01  0.05555555555555555 0.02857142857142857 0.01  0.1111111111111111 0.02857142857142857 0.01  0.1666666666666667 0.02857142857142857 0.01  0.2222222222222222 0.02857142857142857 0.01  0.2777777777777778 0.02857142857142857 0.01  0.3333333333333333 0.02857142857142857 0.01  0.3888888888888889 0.02857142857142857 0.01  0.4444444444444444 0.02857142857142857 0.01  0.5 0.02857142857142857 0.01  0.5555555555555556 0.02857142857142857 0.01  0.6111111111111112 0.02857142857142857 0.01  0.6666666666666666 0.02857142857142857 0.01  0.7222222222222222 0.02857142857142857 0.01  0.7777777777777778 0.02857142857142857 0.01  0.8333333333333334 0.02857142857142857 0.01  0.8888888888888888 0.02857142857142857 0.01  0.9444444444444444 0.02857142857142857 0.01  1 0.02857142857142857 0.01  0 0.04285714285714286 0.01  0.05555555555555555 0.04285714285714286 0.01  0.1111111111111111 0.04285714285714286 0.01  0.1666666666666667 0.04285714285714286 0.01  0.2222222222222222 0.04285714285714286 0.01  0.2777777777777778 0.04285714285714286 0.01  0.3333333333333333 0.04285714285714286 0.01  0.3888888888888889 0.04285714285714286 0.01  0.4444444444444444 0.04285714285714286 0.01  0.5 0.04285714285714286 0.01  0.5555555555555556 0.04285714285714286 0.01  0.6111111111111112 0.04285714285714286 0.01  0.6666666666666666 0.04285714285714286 0.01  0.7222222222222222 0.04285714285714286 0.01  0.7777777777777778 0.04285714285714286 0.01  0.8333333333333334 0.04285714285714286 0.01  0.8888888888888888 0.04285714285714286 0.01  0.9444444444444444 0.04285714285714286 0.01  1 0.04285714285714286 0.01  0 0.05714285714285715 0.01  0.05555555555555555 0.05714285714285715 0.01  0.1111111111111111 0.05714285714285715 0.01  0.1666666666666667 0.05714285714285715 0.01  0.2222222222222222 0.05714285714285715 0.01  0.2777777777777778 0.05714285714285715 0.01  0.3333333333333333 0.05714285714285715 0.01  0.3888888888888889 0.05714285714285715 0.01  0.4444444444444444 0.05714285714285715 0.01  0.5 0.05714285714285715 0.01  0.5555555555555556 0.05714285714285715 0.01  0.6111111111111112 0.05714285714285715 0.01  0.6666666666666666 0.05714285714285715 0.01  0.7222222222222222 0.05714285714285715 0.01  0.7777777777777778 0.05714285714285715 0.01  0.8333333333333334 0.05714285714285715 0.01  0.8888888888888888 0.05714285714285715 0.01  0.9444444444444444 0.05714285714285715 0.01  1 0.05714285714285715 0.01  0 0.07142857142857142 0.01  0.05555555555555555 0.07142857142857142 0.01  0.1111111111111111 0.07142857142857142 0.01  0.1666666666666667 0.07142857142857142 0.01  0.2222222222222222 0.07142857142857142 0.01  0.2777777777777778 0.07142857142857142 0.01  0.3333333333333333 0.07142857142857142 0.01  0.3888888888888889 0.07142857142857142 0.01  0.4444444444444444 0.07142857142857142 0.01  0.5 0.07142857142857142 0.01  0.5555555555555556 0.07142857142857142 0.01  0.6111111111111112 0.07142857142857142 0.01  0.6666666666666666 0.07142857142857142 0.01  0.7222222222222222 0.07142857142857142 0.01  0.7777777777777778 0.07142857142857142 0.01  0.8333333333333334 0.07142857142857142 0.01  0.8888888888888888 0.07142857142857142 0.01  
[...]
<PointData  Vectors="f_33"> 
<DataArray  type="Float64"  Name="f_33"  NumberOfComponents="3" format="ascii">0.0000000000000000e+00 0.0000000000000000e+00 0.0000000000000000e+00  -3.1557209632786030e-03 -1.8501994842784123e-04 -4.5599570353844817e-03  -5.8874788358963077e-03 1.8464810996828598e-04 -1.7480801836382603e-02  -8.3794196312164341e-03 7.8090336990527243e-04 -3.8171989992955957e-02  -1.0635462804081215e-02 1.5475175569159409e-03 -6.5892634281959794e-02  -1.2659331928628892e-02 2.4543579089036436e-03 -9.9941123578843757e-02  -1.4454121841868490e-02 3.4808068174190703e-03 -1.3963084070512535e-01  -1.6024436475302602e-02 4.6096647091084667e-03 -1.8428912922030816e-01  -1.7376721481156748e-02 5.8252689674991327e-03 -2.3326055992546887e-01  -1.8519373529128007e-02 7.1129199941277936e-03 -2.8591172377115126e-01  -1.9462857216463639e-02 8.4587692133996448e-03 -3.4163684145632839e-01  -2.0219825518944280e-02 9.8498778091744444e-03 -3.9986392866880033e-01  -2.0805228124308281e-02 1.1274342188549200e-02 -4.6006137710473377e-01  -2.1236401509684314e-02 1.2721447651313762e-02 -5.2174485708209672e-01  -2.1533139687852445e-02 1.4181835902331529e-02 -5.8448446835820400e-01  -2.1717747979247935e-02 1.5647682150666000e-02 -6.4791207777291360e-01  -2.1815097452164162e-02 1.7112880773662721e-02 -7.1172879502917297e-01  -2.1852736174387957e-02 1.8573226277586993e-02 -7.7571262279842879e-01  -2.1860795043551567e-02 2.0026739365208924e-02 -8.3972709270140999e-01  0.0000000000000000e+00 0.0000000000000000e+00 0.0000000000000000e+00  -3.0162163481240968e-03 -2.9305018251882757e-05 -4.6944592200590732e-03  -5.8165920617983336e-03 3.2258781528680621e-04 -1.7576070439906721e-02  -8.3672688072113730e-03 9.0570383497025786e-04 -3.8172756835393763e-02  -1.0677979723001101e-02 1.6596214356306119e-03 -6.5789060522305001e-02  -1.2752152252707013e-02 2.5539824733742202e-03 -9.9735848856808099e-02  -1.4592895604926407e-02 3.5682017824726834e-03 -1.3933067646291836e-01  -1.6204840002300571e-02 4.6851709959767991e-03 -1.8390237646079974e-01  -1.7594448675986994e-02 5.8893312804326825e-03 -2.3279605613220566e-01  -1.8770142040773263e-02 7.1660937830692155e-03 -2.8537845834116488e-01  -1.9742428225079694e-02 8.5017274285103892e-03 -3.4104377196016855e-01  -2.0524031460338359e-02 9.8834170328713396e-03 -3.9921986758722644e-01  -2.1130005321230043e-02 1.1299387734936231e-02 -4.5937490111112933e-01  -2.1577826345438606e-02 1.2739057481178113e-02 -5.2102422117322578e-01  -2.1887467561124634e-02 1.4193203175048024e-02 -5.8373751807824448e-01  -2.2081453270625308e-02 1.5654136098255902e-02 -6.4714615540625298e-01  -2.2184906464922525e-02 1.7115885531067149e-02 -7.1095063161268990e-01  -2.2225669783742016e-02 1.8574363493657191e-02 -7.7492818040027600e-01  -2.2234780388380303e-02 2.0027322776453808e-02 -8.3894119039787396e-01  0.0000000000000000e+00 0.0000000000000000e+00 0.0000000000000000e+00  -3.0101965817187640e-03 8.9748927865720342e-05 -4.7477999937529649e-03  -5.8422491256820497e-03 4.5771046284607376e-04 -1.7578210780920148e-02  -8.4378307057332881e-03 1.0363687537036776e-03 -3.8084014371721660e-02  -1.0792925010897568e-02 1.7799981910976755e-03 -6.5603691250296997e-02  -1.2908354515052853e-02 2.6621922673284652e-03 -9.9457337093353276e-02  -1.4786591637063766e-02 3.6637908025139955e-03 -1.3896592090210808e-01  -1.6432113157082609e-02 4.7682371584429227e-03 -1.8345952476850705e-01  -1.7851381069950704e-02 5.9602368957558305e-03 -2.3228366738007833e-01  -1.9052882247100222e-02 7.2253730135782290e-03 -2.8480514820262925e-01  -2.0047237155340920e-02 8.5500581399458580e-03 -3.4041803524378150e-01  -2.0847322261674711e-02 9.9216144338770216e-03 -3.9854996441163343e-01  -2.1468382282266964e-02 1.1328405109490642e-02 -4.5866876386174715e-01  -2.1928124557571618e-02 1.2759988682100933e-02 -5.2028936629874623e-01  -2.2246793733481977e-02 1.4207284593341954e-02 -5.8298095685842699e-01  -2.2447226381503704e-02 1.5662746435362921e-02 -6.4637430095061799e-01  -2.2554890448311493e-02 1.7120543008636382e-02 -7.1016919797143963e-01  -2.2597985186645353e-02 1.8576723424094190e-02 -7.7414205732786634e-01  -2.2607979834363426e-02 2.0028986798173644e-02 -8.3815417853736551e-01  0.0000000000000000e+00 0.0000000000000000e+00 0.0000000000000000e+00  -3.0260689263389507e-03 1.9276005271340674e-04 -4.7331461053541531e-03  -5.8899320339056904e-03 5.8854744463922423e-04 -1.7484101693494153e-02  -8.5288584352976402e-03 1.1695656212358271e-03 -3.7898188330045678e-02  -1.0926619871041486e-02 1.9052284585821721e-03 -6.5327444867085610e-02  -1.3081375455634555e-02 2.7758030174824346e-03 -9.9096543117068017e-02  -1.4995110861548642e-02 3.7646451183495949e-03 -1.3852816593566072e-01  -1.6672230843466598e-02 4.8561810026444743e-03 -1.8295301408128295e-01  -1.8119236180946297e-02 6.0355452443713311e-03 -2.3171674251851668e-01  -1.9344706575951696e-02 7.2885567643729676e-03 -2.8418605044266726e-01  -2.0359397214778863e-02 8.6017987703343093e-03 -3.3975476722733317e-01  -2.1176358387066947e-02 9.9627438566386867e-03 -3.9785018776671160e-01  -2.1811047736807546e-02 1.1359901381231489e-02 -4.5793970805783479e-01  -2.2281425627265695e-02 1.2782976759287107e-02 -5.1953773943671278e-01  -2.2608031022537761e-02 1.4223037739019043e-02 -5.8221285522016109e-01  -2.2814036696772878e-02 1.5672685505616461e-02 -6.4559511651332735e-01  -2.2925282350032515e-02 1.7126232687820452e-02 -7.0938352311938724e-01  -2.2970337907793292e-02 1.8579876376491316e-02 -7.7335357481513634e-01  -2.2981046930451901e-02 2.0031469521497654e-02 -8.3736541976752110e-01  0.0000000000000000e+00 0.0000000000000000e+00 0.0000000000000000e+00  -3.0363888119754536e-03 2.9360909199518454e-04 -4.6558900307911563e-03  -5.9392738358960096e-03 7.1903584405549393e-04 -1.7298322335569289e-02  -8.6244488180875073e-03 1.3050085276471758e-03 -3.7615727702931555e-02  -1.1065691028407971e-02 2.0339135268483857e-03 -6.4959208657761600e-02  -1.3259765620597306e-02 2.8931601011042262e-03 -9.8651813902434674e-02  -1.5208692035483138e-02 3.8691241413886827e-03 -1.3801564744021591e-01  -1.6916992262447118e-02 4.9474613374994401e-03 -1.8238114346332762e-01  -1.8391274550657175e-02 6.1138411786981345e-03 -2.3109371037899074e-01  -1.9640238752778084e-02 7.3543628177898616e-03 -2.8351974676778363e-01  -2.0674787246548951e-02 8.6557993831303474e-03 -3.3905270791035641e-01  -2.1508151154494302e-02 1.0005783555166386e-02 -3.9711943371126046e-01  -2.2156006161696700e-02 1.1392976868653775e-02 -4.5718677972501776e-01  -2.2636570232922235e-02 1.2807236438568400e-02 -5.1876852798404416e-01  -2.2970681273624359e-02 1.4239782907587267e-02 -5.8143253116448934e-01  -2.3181854148192016e-02 1.5683369947239886e-02 -6.4480803734005931e-01  -2.3296312261145119e-02 1.7132458483192260e-02 -7.0859314195884315e-01  -2.3343015442579881e-02 1.8583402470181025e-02 -7.7256234003006052e-01  -2.3354224714998043e-02 2.0034372827747875e-02 -8.3657459895312059e-01  0.0000000000000000e+00 0.0000000000000000e+00 0.0000000000000000e+00  -3.0311644050180953e-03 4.0409346502724681e-04 -4.5132083004963564e-03  -5.9804990300738377e-03 8.5555044002847921e-04 -1.7020304903542369e-02  -8.7160414021242825e-03 1.4450186203748428e-03 -3.7236338751161037e-02  -1.1202521472710638e-02 2.1666204220113843e-03 -6.4498380663058519e-02  -1.3436790413220013e-02 3.0141869811261051e-03 -9.8122369513814034e-02  -1.5421465841355729e-02 3.9769182597395496e-03 -1.3742755004175591e-01  -1.7161367740844088e-02 5.0416832982072054e-03 -1.8174313539755479e-01  -1.8663271859367808e-02 6.1946984969035168e-03 -2.3041386297874594e-01  -1.9936017794187997e-02 7.4223534882562189e-03 -2.8280561086552547e-01  -2.0990659433282873e-02 8.7116181693650541e-03 -3.3831131627134314e-01  -2.1840607007104103e-02 1.0050290381348788e-02 -3.9635724630666141e-01  -2.2501750166950277e-02 1.1427188243659007e-02 -4.5640960581428791e-01  -2.2992559558401657e-02 1.2832324863240440e-02 -5.1798143824660681e-01  -2.3334166890405562e-02 1.4257078365227943e-02 -5.8063976549582830e-01  -2.3550424580145338e-02 1.5694360575838562e-02 -6.4401291169482233e-01  -2.3667943041902312e-02 1.7138787250604991e-02 -7.0779795844391591e-01  -2.3716097439426001e-02 1.8586878200135323e-02 -7.7176829592506291e-01  -2.3727624313111716e-02 2.0037244790398256e-02 -8.3578170073047842e-01  0.0000000000000000e+00 0.0000000000000000e+00 0.0000000000000000e+00  -2.9962703602347987e-03 5.3443633143221631e-04 -4.2915687359853421e-03  -5.9972298730009924e-03 1.0041295759271036e-03 -1.6642622034819567e-02  -8.7870964963840149e-03 1.5925081772564971e-03 -3.6756306813994534e-02  -1.1321354391931117e-02 2.3046242189634384e-03 -6.3942529342580975e-02  -1.3598011846269315e-02 3.1394322260379277e-03 -9.7506339256991995e-02  -1.5620509808705581e-02 4.0882540767840309e-03 -1.3676235063858191e-01  -1.7393999952774623e-02 5.1389148952275983e-03 -1.8103774387531785e-01  -1.8925422586480407e-02 6.2780909018101934e-03 -2.2967620184309787e-01  -2.0223744266438835e-02 7.4924339402374640e-03 -2.8204287380623549e-01  -2.1300153013277253e-02 8.7691030403908368e-03 -3.3753003717376717e-01  -2.2168218210305925e-02 1.0096061156315674e-02 -3.9556326749581022e-01  -2.2844022040565033e-02 1.1462285888357401e-02 -4.5560800648600241e-01  -2.3346265517102598e-02 1.2857950496172750e-02 -5.1717644707897559e-01  -2.3696351296480365e-02 1.4274595558064290e-02 -5.7983466720949151e-01  -2.3918445840491704e-02 1.5705297556068400e-02 -6.4320995210231635e-01  -2.4039528075969260e-02 1.7144836301279637e-02 -7.0699825244011516e-01  -2.4089407702553911e-02 1.8589898854931675e-02 -7.7097174517825928e-01  -2.4101277683073206e-02 2.0039630996974887e-02 -8.3498701282352550e-01  0.0000000000000000e+00 0.0000000000000000e+00 0.0000000000000000e+00  -2.8707781273357002e-03 6.7651885170295792e-04 -3.9844952500974456e-03  -5.9211283999559246e-03 1.1569421789809715e-03 -1.6165815314094636e-02  -8.7704960781374939e-03 1.7398231828701905e-03 -3.6180140022514587e-02  -1.1359192744215272e-02 2.4405800458596307e-03 -6.3297348695200650e-02  -1.3685981871990749e-02 3.2620898456357569e-03 -9.6809595372620821e-02  -1.5754437222667995e-02 4.1970046628966627e-03 -1.3602570283859008e-01  -1.7569673527774100e-02 5.2337634224985906e-03 -1.8027025063398111e-01  -1.9138607136963113e-02 6.3593652347906015e-03 -2.2888557713936108e-01  -2.0470213675441228e-02 7.5606695704728737e-03 -2.8123593122230861e-01  -2.1575721189932975e-02 8.8250015560957830e-03 -3.3671280419360061e-01  -2.2468770405638463e-02 1.0140478185685231e-02 -3.9474096893619015e-01  -2.3165548400973981e-02 1.1496229962289944e-02 -4.5478499658570226e-01  -2.3684897225079517e-02 1.2882585403352137e-02 -5.1635612177195178e-01  -2.4048399130358240e-02 1.4291243419349972e-02 -5.7901936924455666e-01  -2.4280441426062775e-02 1.5715442165250476e-02 -6.4240087414792757e-01  -2.4408269835208503e-02 1.7150130396697955e-02 -7.0619534037837772e-01  -2.4462087263771762e-02 1.8592138491055572e-02 -7.7017356406610293e-01  -2.4475245484739030e-02 2.0041236509412960e-02 -8.3419093308845493e-01  0.0000000000000000e+00 0.0000000000000000e+00 0.0000000000000000e+00  -1.4477230402728796e-03 -6.4944510349426666e-05 -4.4264814474193901e-03  -2.7451447231238691e-03 2.7493366489627291e-04 -1.7357436280870664e-02  -3.9225033558876691e-03 8.0094751729213435e-04 -3.8058692369482248e-02  -4.9892901372170775e-03 1.4917424411722228e-03 -6.5789806531185310e-02  -5.9474658716890377e-03 2.3251850817401615e-03 -9.9848849889345448e-02  -6.7981790489855089e-03 3.2832409947652469e-03 -1.3954905058415973e-01  -7.5433965488005458e-03 4.3496457694099100e-03 -1.8421763151854778e-01  -8.1860305253566770e-03 5.5090838131647609e-03 -2.3319906250942796e-01  -8.7299406121269137e-03 6.7469627529011126e-03 -2.8585983880907190e-01  -9.1799660731395356e-03 8.0494240364788958e-03 -3.4159408352864268e-01  -9.5419742355850427e-03 9.4034443355952187e-03 -3.9982971056251332e-01  -9.8229089482460598e-03 1.0796974199458432e-02 -4.6003500537739067e-01  -1.0030832450338272e-02 1.2219094018209371e-02 -5.2172552813198225e-01  -1.0174958792286203e-02 1.3660179614302886e-02 -5.8447126516954362e-01  -1.0265679814360756e-02 1.5112074633696874e-02 -6.4790396719305643e-01  -1.0314591904339239e-02 1.6568265237656966e-02 -7.1172462386456503e-01  -1.0334544174305483e-02 1.8024024749160060e-02 -7.7571110508048591e-01  -1.0339416714498093e-02 1.9476647031392506e-02 -8.3972642395013086e-01  0.0000000000000000e+00 0.0000000000000000e+00 0.0000000000000000e+00  -1.4237915630448841e-03 3.2034692210806990e-05 -4.5474266220003300e-03  -2.7915339699176801e-03 3.5347323316368149e-04 -1.7451506426765150e-02  -4.0174674541450040e-03 8.7228072813580904e-04 -3.8059430555611326e-02  -5.1285662706559059e-03 1.5560323428375259e-03 -6.5686533097480460e-02  -6.1266127987326096e-03 2.3824847789108180e-03 -9.9643922643820770e-02  -7.0129598917915590e-03 3.3336463621054155e-03 -1.3924919241802561e-01  -7.7897215533515585e-03 4.3933233368813581e-03 -1.8383111562119012e-01  -8.4599266040970029e-03 5.5462666644144993e-03 -2.3273472088488611e-01  -9.0275546549800929e-03 6.7779491192652870e-03 -2.8532666444745236e-01  -9.4975876589258809e-03 8.0745789875227569e-03 -3.4100104177642082e-01  -9.8760676087493917e-03 9.4232025002038942e-03 -3.9918562402851598e-01  -1.0170149748171738e-02 1.0811842445279173e-02 -4.5934846252692613e-01  -1.0388147344189131e-02 1.2229653687121096e-02 -5.2100479716102910e-01  -1.0539567139396404e-02 1.3667088161002502e-02 -5.8372420616484610e-01  -1.0635135874398878e-02 1.5116066787118030e-02 -6.4713793853758717e-01  -1.0686822721194479e-02 1.6570154668590863e-02 -7.1094637543563866e-01  -1.0707899322551773e-02 1.8024704135132914e-02 -7.7492661796524376e-01  -1.0713136013634236e-02 1.9476891674626625e-02 -8.3894066909484577e-01  0.0000000000000000e+00 0.0000000000000000e+00 0.0000000000000000e+00  -1.4404015687064066e-03 9.7058963126033887e-05 -4.5959650026214651e-03  -2.8489465686983638e-03 4.2388298900736851e-04 -1.7447882965128517e-02  -4.1205361931202500e-03 9.3980640825535124e-04 -3.7967787238672862e-02  -5.2739642291166171e-03 1.6180036165346502e-03 -6.5499343215530859e-02  -6.3105110694001640e-03 2.4381196963391286e-03 -9.9364073208430326e-02  -7.2313838100034620e-03 3.3827671300948143e-03 -1.3888336815743893e-01  -8.0387201632115147e-03 4.4359976264041652e-03 -1.8338738652149503e-01  -8.7356281264700120e-03 5.5826850456177505e-03 -2.3222161478429076e-01  -9.3262008907309835e-03 6.8083858652977537e-03 -2.8475278142710336e-01  -9.8155685078645701e-03 8.0993804958551189e-03 -3.4037486580329290e-01  -1.0209957650189299e-02 9.4427850576245479e-03 -3.9851540513786049e-01  -1.0516746741037204e-02 1.0826692993207517e-02 -4.5864212226423501e-01  -1.0744512445457679e-02 1.2240331274561343e-02 -5.2026983977151009e-01  -1.0903066535080698e-02 1.3674225080761522e-02 -5.8296762907522115e-01  -1.1003482447608112e-02 1.5120368794615178e-02 -6.4636613922878694e-01  -1.1058111862980639e-02 1.6572401784593828e-02 -7.1016505103906935e-01  -1.1080636551580755e-02 1.8025760022786132e-02 -7.7414064140866667e-01  -1.1086407995203723e-02 1.9477607268908667e-02 -8.3815386299584971e-01  0.0000000000000000e+00 0.0000000000000000e+00 0.0000000000000000e+00  -1.4688934814020673e-03 1.5169579356241384e-04 -4.5776816485272528e-03  -2.9163039540708951e-03 4.8994591649431738e-04 -1.7349439120221039e-02  -4.2320140173397556e-03 1.0064864680430447e-03 -3.7778878714543870e-02  -5.4268603590118631e-03 1.6806133027565506e-03 -6.5220879905622309e-02  -6.5010237641911885e-03 2.4948627601381690e-03 -9.9001542315430194e-02  -7.4555433371690056e-03 3.4331005472784384e-03 -1.3844417861795669e-01  -8.2925993772971739e-03 4.4798586851333777e-03 -1.8287966933105032e-01  -9.0153909468624182e-03 5.6202179481842076e-03 -2.3165367918151261e-01  -9.6281346893021154e-03 6.8398490489046289e-03 -2.8413285146172212e-01  -1.0136118252809809e-02 8.1251162283146362e-03 -3.3971093142224756e-01  -1.0545762604579777e-02 9.4632103537314709e-03 -3.9781511577128992e-01  -1.0864679171044590e-02 1.0842297854179471e-02 -4.5791269411710334e-01  -1.1101718005208859e-02 1.2251679209521856e-02 -5.1951796598558553e-01  -1.1267006021406489e-02 1.3681953819128748e-02 -5.8219938900217105e-01  -1.1371974148065364e-02 1.5125189805430038e-02 -6.4558690583321066e-01  -1.1429369130963037e-02 1.6575099542649466e-02 -7.0937939639563852e-01  -1.1453282197105716e-02 1.8027206946630653e-02 -7.7335223094196237e-01  -1.1459538479459554e-02 1.9478786779811481e-02 -8.3736523483443870e-01  0.0000000000000000e+00 0.0000000000000000e+00 0.0000000000000000e+00  -1.4956498669884866e-03 2.0578794605107225e-04 -4.4990396808638851e-03  -2.9853903911085909e-03 5.5614144716933749e-04 -1.7160900039829518e-02  -4.3460171059154463e-03 1.0747073710963271e-03 -3.7493761295577979e-02  -5.5825048741095533e-03 1.7453741973567441e-03 -6.4850468315824222e-02  -6.6941801476228836e-03 2.5538810018818055e-03 -9.8555009231483873e-02  -7.6821384008328624e-03 3.4856068995893232e-03 -1.3793012758161982e-01  -8.5486718789829792e-03 4.5257026288905893e-03 -1.8230648723556622e-01  -9.2970946153911518e-03 5.6595137654600561e-03 -2.3102953192212125e-01  -9.9317567339702647e-03 6.8728491393088842e-03 -2.8346561416642663e-01  -1.0458108767388610e-02 8.1521673453759519e-03 -3.3900810790716362e-01  -1.0882769478431030e-02 9.4847394555170363e-03 -3.9708375473751012e-01  -1.1213586165771654e-02 1.0858808476399863e-02 -4.5715930251966092e-01  -1.1459684957292856e-02 1.2263751346821622e-02 -5.1874841969022423e-01  -1.1631510627555373e-02 1.3690244476295993e-02 -5.8141884125134446e-01  -1.1740855279732492e-02 1.5130432364298592e-02 -6.4479969473312682e-01  -1.1800869283903306e-02 1.6578101536852446e-02 -7.0858895418297041e-01  -1.1826063189911275e-02 1.8028867449041634e-02 -7.7256098927684258e-01  -1.1832703857570433e-02 1.9480222650084388e-02 -8.3657445647282580e-01  0.0000000000000000e+00 0.0000000000000000e+00 0.0000000000000000e+00  -1.5151477516002505e-03 2.6678927490723258e-04 -4.3583004621226933e-03  -3.0505956227897479e-03 6.2684380432593428e-04 -1.6882258229991898e-02  -4.4578698956947741e-03 1.1466909780762473e-03 -3.7112971111282901e-02  -5.7367290414291408e-03 1.8135346912355405e-03 -6.4388237106422705e-02  -6.8862977959616130e-03 2.6160093776080627e-03 -9.8024294017373170e-02  -7.9079733188551909e-03 3.5409180917088884e-03 -1.3734090030592114e-01  -8.8042194047006465e-03 4.5740314050815075e-03 -1.8166748264387114e-01  -9.5784795940800395e-03 5.7009715895774901e-03 -2.3034881426522419e-01  -1.0235241048990292e-02 6.9076938987047412e-03 -2.8275072820839270e-01  -1.0780116880363271e-02 8.1807567372505739e-03 -3.3826608032843258e-01  -1.1219921681442636e-02 9.5075155421844790e-03 -3.9632103873194474e-01  -1.1562735956183685e-02 1.0876293606398654e-02 -4.5638169953283497e-01  -1.1817958972253568e-02 1.2276547961908467e-02 -5.1796099139164919e-01  -1.1996350366885953e-02 1.3699035832427790e-02 -5.8062581728289731e-01  -1.2110061004427646e-02 1.5135982392238456e-02 -6.4400437943857158e-01  -1.2172648902784614e-02 1.6581251744028389e-02 -7.0779363640832971e-01  -1.2199063262952723e-02 1.8030552085871891e-02 -7.7176685715890647e-01  -1.2205997754324722e-02 1.9481674509520180e-02 -8.3578150523022721e-01  0.0000000000000000e+00 0.0000000000000000e+00 0.0000000000000000e+00  -1.5232021736455124e-03 3.4370832361701857e-04 -4.1433888412016400e-03  -3.1058487055008297e-03 7.0796981309560747e-04 -1.6507060412951205e-02  -4.5611200462004108e-03 1.2263491321199904e-03 -3.6633836629479277e-02  -5.8832177165525686e-03 1.8878896065904170e-03 -6.3832721072582463e-02  -7.0715193356261589e-03 2.6834242125728064e-03 -9.7408355335056360e-02  -8.1277747775620433e-03 3.6008186892229586e-03 -1.3667566757653907e-01  -9.0545915107198369e-03 4.6263313947595445e-03 -1.8096197933023048e-01  -9.8555206800105596e-03 5.7458206433849872e-03 -2.2961098386250628e-01  -1.0535172703616473e-02 6.9453777803543245e-03 -2.8198777686872328e-01  -1.1099312564512572e-02 8.2116609045665527e-03 