<?xml version="1.0"?>
<VTKFile type="UnstructuredGrid"  version="0.1"  >
<UnstructuredGrid>
<Piece  NumberOfPoints="760" NumberOfCells="3024">
<Points>
<DataArray  type="Float64"  NumberOfComponents="3"  format="ascii">0 0 0  0.05555555555555555 0 0  0.1111111111111111 0 0  0.1666666666666667 0 0  0.2222222222222222 0 0  0.2777777777777778 0 0  0.3333333333333333 0 0  0.3888888888888889 0 0  0.4444444444444444 0 0  0.5 0 0  0.5555555555555556 0 0  0.6111111111111112 0 0  0.6666666666666666 0 0  0.7222222222222222 0 0  0.7777777777777778 0 0  0.8333333333333334 0 0  0.8888888888888888 0 0  0.9444444444444444 0 0  1 0 0  0 0.01428571428571429 0  0.05555555555555555 0.01428571428571429 0  0.1111111111111111 0.01428571428571429 0  0.1666666666666667 0.01428571428571429 0  0.2222222222222222 0.01428571428571429 0  0.2777777777777778 0.01428571428571429 0  0.3333333333333333 0.01428571428571429 0  0.3888888888888889 0.01428571428571429 0  0.4444444444444444 0.01428571428571429 0  0.5 0.01428571428571429 0  0.5555555555555556 0.01428571428571429 0  0.6111111111111112 0.01428571428571429 0  0.6666666666666666 0.01428571428571429 0  0.7222222222222222 0.01428571428571429 0  0.7777777777777778 0.01428571428571429 0  0.8333333333333334 0.01428571428571429 0  0.8888888888888888 0.01428571428571429 0  0.9444444444444444 0.01428571428571429 0  1 0.01428571428571429 0  0 0.02857142857142857 0  0.05555555555555555 0.02857142857142857 0  0.1111111111111111 0.02857142857142857 0  0.1666666666666667 0.02857142857142857 0  0.2222222222222222 0.02857142857142857 0  0.2777777777777778 0.02857142857142857 0  0.3333333333333333 0.02857142857142857 0  0.3888888888888889 0.02857142857142857 0  0.4444444444444444 0.02857142857142857 0  0.5 0.02857142857142857 0  0.5555555555555556 0.02857142857142857 0  0.6111111111111112 0.02857142857142857 0  0.6666666666666666 0.02857142857142857 0  0.7222222222222222 0.02857142857142857 0  0.7777777777777778 0.02857142857142857 0  0.8333333333333334 0.02857142857142857 0  0.8888888888888888 0.02857142857142857 0  0.9444444444444444 0.02857142857142857 0  1 0.02857142857142857 0  0 0.04285714285714286 0  0.05555555555555555 0.04285714285714286 0  0.1111111111111111 0.04285714285714286 0  0.1666666666666667 0.04285714285714286 0  0.2222222222222222 0.04285714285714286 0  0.2777777777777778 0.04285714285714286 0  0.3333333333333333 0.04285714285714286 0  0.3888888888888889 0.04285714285714286 0  0.4444444444444444 0.04285714285714286 0  0.5 0.04285714285714286 0  0.5555555555555556 0.04285714285714286 0  0.6111111111111112 0.04285714285714286 0  0.6666666666666666 0.04285714285714286 0  0.7222222222222222 0.04285714285714286 0  0.7777777777777778 0.04285714285714286 0  0.8333333333333334 0.04285714285714286 0  0.8888888888888888 0.04285714285714286 0  0.9444444444444444 0.04285714285714286 0  1 0.04285714285714286 0  0 0.05714285714285715 0  0.05555555555555555 0.05714285714285715 0  0.1111111111111111 0.05714285714285715 0  0.1666666666666667 0.05714285714285715 0  0.2222222222222222 0.05714285714285715 0  0.2777777777777778 0.05714285714285715 0  0.3333333333333333 0.05714285714285715 0  0.3888888888888889 0.05714285714285715 0  0.4444444444444444 0.05714285714285715 0  0.5 0.05714285714285715 0  0.5555555555555556 0.05714285714285715 0  0.6111111111111112 0.05714285714285715 0  0.6666666666666666 0.05714285714285715 0  0.7222222222222222 0.05714285714285715 0  0.7777777777777778 0.05714285714285715 0  0.8333333333333334 0.05714285714285715 0  0.8888888888888888 0.05714285714285715 0  0.9444444444444444 0.05714285714285715 0  1 0.05714285714285715 0  0 0.07142857142857142 0  0.05555555555555555 0.07142857142857142 0  0.1111111111111111 0.07142857142857142 0  0.1666666666666667 0.07142857142857142 0  0.2222222222222222 0.07142857142857142 0  0.2777777777777778 0.07142857142857142 0  0.3333333333333333 0.07142857142857142 0  0.3888888888888889 0.07142857142857142 0  0.4444444444444444 0.07142857142857142 0  0.5 0.07142857142857142 0  0.5555555555555556 0.07142857142857142 0  0.6111111111111112 0.07142857142857142 0  0.6666666666666666 0.07142857142857142 0  0.7222222222222222 0.07142857142857142 0  0.7777777777777778 0.07142857142857142 0  0.8333333333333334 0.07142857142857142 0  0.8888888888888888 0.07142857142857142 0  0.9444444444444444 0.07142857142857142 0  1 0.07142857142857142 0  0 0.08571428571428573 0  0.05555555555555555 0.08571428571428573 0  0.1111111111111111 0.08571428571428573 0  0.1666666666666667 0.08571428571428573 0  0.2222222222222222 0.08571428571428573 0  0.2777777777777778 0.08571428571428573 0  0.3333333333333333 0.08571428571428573 0  0.3888888888888889 0.08571428571428573 0  0.4444444444444444 0.08571428571428573 0  0.5 0.08571428571428573 0  0.5555555555555556 0.08571428571428573 0  0.6111111111111112 0.08571428571428573 0  0.6666666666666666 0.08571428571428573 0  0.7222222222222222 0.08571428571428573 0  0.7777777777777778 0.08571428571428573 0  0.8333333333333334 0.08571428571428573 0  0.8888888888888888 0.08571428571428573 0  0.9444444444444444 0.08571428571428573 0  1 0.08571428571428573 0  0 0.1 0  0.05555555555555555 0.1 0  0.1111111111111111 0.1 0  0.1666666666666667 0.1 0  0.2222222222222222 0.1 0  0.2777777777777778 0.1 0  0.3333333333333333 0.1 0  0.3888888888888889 0.1 0  0.4444444444444444 0.1 0  0.5 0.1 0  0.5555555555555556 0.1 0  0.6111111111111112 0.1 0  0.6666666666666666 0.1 0  0.7222222222222222 0.1 0  0.7777777777777778 0.1 0  0.8333333333333334 0.1 0  0.8888888888888888 0.1 0  0.9444444444444444 0.1 0  1 0.1 0  0 0 0.01  0.05555555555555555 0 0.01  0.1111111111111111 0 0.01  0.1666666666666667 0 0.01  0.2222222222222222 0 0.01  0.2777777777777778 0 0.01  0.3333333333333333 0 0.01  0.3888888888888889 0 0.01  0.4444444444444444 0 0.01  0.5 0 0.01  0.5555555555555556 0 0.01  0.6111111111111112 0 0.01  0.6666666666666666 0 0.01  0.7222222222222222 0 0.01  0.7777777777777778 0 0.01  0.8333333333333334 0 0.01  0.8888888888888888 0 0.01  0.9444444444444444 0 0.01  1 0 0.01  0 0.01428571428571429 0.01  0.05555555555555555 0.01428571428571429 0.01  0.1111111111111111 0.01428571428571429 0.01  0.1666666666666667 0.01428571428571429 0.01  0.2222222222222222 0.01428571428571429 0.01  0.2777777777777778 0.01428571428571429 0.01  0.3333333333333333 0.01428571428571429 0.01  0.3888888888888889 0.01428571428571429 0.01  0.4444444444444444 0.01428571428571429 0.01  0.5 0.01428571428571429 0.01  0.5555555555555556 0.01428571428571429 0.01  0.6111111111111112 0.01428571428571429 0.01  0.6666666666666666 0.01428571428571429 0.01  0.7222222222222222 0.01428571428571429 0.01  0.7777777777777778 0.01428571428571429 0.01  0.8333333333333334 0.01428571428571429 0.01  0.8888888888888888 0.01428571428571429 0.01  0.9444444444444444 0.01428571428571429 0.01  1 0.01428571428571429 0.01  0 0.02857142857142857 0.01  0.05555555555555555 0.02857142857142857 0.01  0.1111111111111111 0.02857142857142857 0.01  0.1666666666666667 0.02857142857142857 0.01  0.2222222222222222 0.02857142857142857 0.01  0.2777777777777778 0.02857142857142857 0.01  0.3333333333333333 0.02857142857142857 0.01  0.3888888888888889 0.02857142857142857 0.01  0.4444444444444444 0.02857142857142857 0.01  0.5 0.02857142857142857 0.01  0.5555555555555556 0.02857142857142857 0.01  0.6111111111111112 0.02857142857142857 0.01  0.6666666666666666 0.02857142857142857 0.01  0.7222222222222222 0.02857142857142857 0.01  0.7777777777777778 0.02857142857142857 0.01  0.8333333333333334 0.02857142857142857 0.01  0.8888888888888888 0.02857142857142857 0.01  0.9444444444444444 0.02857142857142857 0.01  1 0.02857142857142857 0.01  0 0.04285714285714286 0.01  0.05555555555555555 0.04285714285714286 0.01  0.1111111111111111 0.04285714285714286 0.01  0.1666666666666667 0.04285714285714286 0.01  0.2222222222222222 0.04285714285714286 0.01  0.2777777777777778 0.04285714285714286 0.01  0.3333333333333333 0.04285714285714286 0.01  0.3888888888888889 0.04285714285714286 0.01  0.4444444444444444 0.04285714285714286 0.01  0.5 0.04285714285714286 0.01  0.5555555555555556 0.04285714285714286 0.01  0.6111111111111112 0.04285714285714286 0.01  0.6666666666666666 0.04285714285714286 0.01  0.7222222222222222 0.04285714285714286 0.01  0.7777777777777778 0.04285714285714286 0.01  0.8333333333333334 0.04285714285714286 0.01  0.8888888888888888 0.04285714285714286 0.01  0.9444444444444444 0.04285714285714286 0.01  1 0.04285714285714286 0.01  0 0.05714285714285715 0.01  0.05555555555555555 0.05714285714285715 0.01  0.1111111111111111 0.05714285714285715 0.01  0.1666666666666667 0.05714285714285715 0.01  0.2222222222222222 0.05714285714285715 0.01  0.2777777777777778 0.05714285714285715 0.01  0.3333333333333333 0.05714285714285715 0.01  0.3888888888888889 0.05714285714285715 0.01  0.4444444444444444 0.05714285714285715 0.01  0.5 0.05714285714285715 0.01  0.5555555555555556 0.05714285714285715 0.01  0.6111111111111112 0.05714285714285715 0.01  0.6666666666666666 0.05714285714285715 0.01  0.7222222222222222 0.05714285714285715 0.01  0.7777777777777778 0.05714285714285715 0.01  0.8333333333333334 0.05714285714285715 0.01  0.8888888888888888 0.05714285714285715 0.01  0.9444444444444444 0.05714285714285715 0.01  1 0.05714285714285715 0.01  0 0.07142857142857142 0.01  0.05555555555555555 0.07142857142857142 0.01  0.1111111111111111 0.07142857142857142 0.01  0.1666666666666667 0.07142857142857142 0.01  0.2222222222222222 0.07142857142857142 0.01  0.2777777777777778 0.07142857142857142 0.01  0.3333333333333333 0.07142857142857142 0.01  0.3888888888888889 0.07142857142857142 0.01  0.4444444444444444 0.07142857142857142 0.01  0.5 0.07142857142857142 0.01  0.5555555555555556 0.07142857142857142 0.01  0.6111111111111112 0.07142857142857142 0.01  0.6666666666666666 0.07142857142857142 0.01  0.7222222222222222 0.07142857142857142 0.01  0.7777777777777778 0.07142857142857142 0.01  0.8333333333333334 0.07142857142857142 0.01  0.8888888888888888 0.07142857142857142 0.01  
[...]
<PointData  Vectors="f_33"> 
<DataArray  type="Float64"  Name="f_33"  NumberOfComponents="3" format="ascii">0.0000000000000000e+00 0.0000000000000000e+00 0.0000000000000000e+00  3.0564309936160762e-04 4.2383556307176700e-05 3.9032648563269706e-04  5.7312113202219667e-04 7.4664106613559983e-05 1.4874577323300312e-03  8.1782974234390602e-04 1.2607991666706189e-04 3.2439536275931571e-03  1.0395302600211575e-03 1.9830140405842134e-04 5.5971262257236074e-03  1.2384435973362376e-03 2.9043098915109827e-04 8.4874464501284962e-03  1.4148583873860371e-03 4.0078110515870630e-04 1.1856628594186822e-02  1.5692275207293386e-03 5.2743389214350870e-04 1.5647568124822389e-02  1.7021840975879334e-03 6.6842165700837705e-04 1.9804624031477865e-02  1.8145516022724205e-03 8.2180110018833998e-04 2.4274026375998143e-02  1.9073559762901571e-03 9.8569186817388599e-04 2.9004352490823979e-02  1.9818376707512559e-03 1.1583029271003537e-03 3.3947050242525811e-02  2.0394623065134372e-03 1.3379550651480014e-03 3.9056996524837476e-02  2.0819294776277001e-03 1.5231024457166597e-03 4.4293082970517463e-02  2.1111796506242545e-03 1.7123541164066347e-03 4.9618822653122986e-02  2.1293993957711421e-03 1.9044955314210282e-03 5.5002972595297996e-02  2.1390262809919593e-03 2.0985097451642620e-03 6.0420167945442825e-02  2.1427584891871680e-03 2.2935995960723199e-03 6.5851570259207334e-02  2.1435641838104388e-03 2.4892166490653603e-03 7.1285594291629631e-02  0.0000000000000000e+00 0.0000000000000000e+00 0.0000000000000000e+00  2.8184875554559908e-04 2.6620901441448616e-05 4.0120742528339790e-04  5.4542375974630391e-04 6.0562918854803450e-05 1.4948460235049679e-03  7.8575004345846577e-04 1.1327646588477090e-04 3.2433515448845019e-03  1.0035293109624361e-03 1.8678426475139142e-04 5.5877091309062899e-03  1.1990259792343304e-03 2.8018421180376035e-04 8.4694398711570376e-03  1.3725272438204915e-03 3.9178054321026908e-04 1.1830610759794698e-02  1.5244707933042695e-03 5.1964570716235504e-04 1.5614243612958840e-02  1.6554665900983094e-03 6.6180158152746578e-04 1.9764742716900825e-02  1.7663083910062758e-03 8.1629371861784844e-04 2.4228350554644531e-02  1.8579863510839901e-03 9.8122989972984913e-04 2.8953641139417719e-02  1.9316992137995599e-03 1.1548065879954147e-03 3.3892049317928823e-02  1.9888649642757477e-03 1.3353315419272638e-03 3.8998431205163539e-02  2.0311296002523166e-03 1.5212454895006651e-03 4.4231650321970517e-02  2.0603740084543880e-03 1.7111437730229274e-03 4.9555184140418339e-02  2.0787190805221811e-03 1.9037980604522924e-03 5.4937746064677412e-02  2.0885297520255928e-03 2.0981779619782107e-03 6.0353918312145580e-02  2.0924228648522714e-03 2.2934749066965496e-03 6.5784795498691054e-02  2.0933070525164764e-03 2.4891545425232515e-03 7.1218695069392809e-02  0.0000000000000000e+00 0.0000000000000000e+00 0.0000000000000000e+00  2.7054819228275554e-04 1.4822706729565726e-05 4.0471796634923394e-04  5.2667296895408131e-04 4.7391770083873237e-05 1.4940593880134491e-03  7.6140189087258326e-04 1.0064568448947866e-04 3.2348877207717874e-03  9.7434590939859522e-04 1.7517367903675557e-04 5.5711103264894169e-03  1.1656150514672994e-03 2.6975131811457010e-04 8.4450022076878201e-03  1.3354406569272923e-03 3.8256150987331649e-04 1.1798919131478913e-02  1.4842298282916524e-03 5.1162903891469990e-04 1.5575989082752336e-02  1.6125676785873782e-03 6.5495225377089426e-04 1.9720650940204351e-02  1.7212219016343165e-03 8.1056090829796320e-04 2.4179151339603203e-02  1.8111528439973600e-03 9.7654929080892659e-04 2.8900053215067480e-02  1.8835246159807125e-03 1.1511008393374485e-03 3.3834770573808085e-02  1.9397152223629254e-03 1.3325101631614701e-03 3.8938130725213772e-02  1.9813250552933111e-03 1.5192045793771054e-03 4.4168960845258877e-02  2.0101835979727378e-03 1.7097658171102712e-03 4.9490694443500967e-02  2.0283542998488112e-03 1.9029519550152741e-03 5.4871993020117971e-02  2.0381378171617287e-03 2.0977195219995647e-03 6.0287378253673668e-02  2.0420780139603833e-03 2.2932479766203866e-03 6.5717873628828860e-02  2.0430032612727606e-03 2.4889984550987222e-03 7.1151705026517659e-02  0.0000000000000000e+00 0.0000000000000000e+00 0.0000000000000000e+00  2.6165797197678507e-04 5.2453736939135131e-06 4.0238379242729644e-04  5.1016133313092776e-04 3.5368312613110505e-05 1.4850077815019814e-03  7.3909305515593214e-04 8.8515270559531256e-05 3.2181113045882288e-03  9.4704142085215101e-04 1.6380206576064758e-04 5.5467302631681623e-03  1.1339062685672950e-03 2.5944131829483050e-04 8.4135192844273718e-03  1.2998730525439713e-03 3.7340810171124418e-04 1.1760976941928122e-02  1.4453248738655138e-03 5.0364397045990993e-04 1.5532283571257875e-02  1.5708253196444588e-03 6.4811024251396402e-04 1.9671889133789613e-02  1.6771182185319998e-03 8.0481596468157579e-04 2.4126030998945273e-02  1.7651359874067030e-03 9.7184026105503075e-04 2.8843250944411477e-02  1.8360099365496449e-03 1.1473530957287967e-03 3.3774933040469572e-02  1.8910799618362944e-03 1.3296359417228180e-03 3.8875866856861750e-02  1.9319027777000080e-03 1.5171028915865732e-03 4.4104834205094715e-02  1.9602584523398530e-03 1.7083223141181423e-03 4.9425215509255160e-02  1.9781551196934063e-03 1.9020389844662455e-03 5.4805611293938079e-02  1.9878317596251443e-03 2.0971965430365974e-03 6.0220474186464666e-02  1.9917630882726966e-03 2.2929618253230166e-03 6.5650749928123142e-02  1.9927023422734612e-03 2.4887773998770592e-03 7.1084568100052523e-02  0.0000000000000000e+00 0.0000000000000000e+00 0.0000000000000000e+00  2.5250555315973707e-04 -3.3434772991774180e-06 3.9471172304974140e-04  4.9393368099892620e-04 2.4164919005159130e-05 1.4681202946087977e-03  7.1726493299425391e-04 7.6906686048322791e-05 3.1930893977068268e-03  9.2027755393519573e-04 1.5278062643168079e-04 5.5145018521299341e-03  1.1027348881747761e-03 2.4938801728689405e-04 8.3748746911719036e-03  1.2648135257485630e-03 3.6445393288258513e-04 1.1716655531675096e-02  1.4068885391304042e-03 4.9581666358759953e-04 1.5483001221366612e-02  1.5295079666921728e-03 6.4139197614982942e-04 1.9618340024141416e-02  1.6333941315136841e-03 7.9916497856725955e-04 2.4068882909970009e-02  1.7194525791627449e-03 9.6719859414172752e-04 2.8783138929546218e-02  1.7887824094076736e-03 1.1436491484456768e-03 3.3712452488041902e-02  1.8426858418137981e-03 1.3267851547199994e-03 3.8811566176839923e-02  1.8826763068456713e-03 1.5150077869723452e-03 4.4039207235862063e-02  1.9104848701427437e-03 1.7068723939873407e-03 4.9358693722819036e-02  1.9280649207039551e-03 1.9011107478773236e-03 5.4738555922010206e-02  1.9375949159467450e-03 2.0966536882467473e-03 6.0153168509569775e-02  1.9414826869539545e-03 2.2926545096570764e-03 6.5583391590263163e-02  1.9424138631579503e-03 2.4885287696750687e-03 7.1017256184098654e-02  0.0000000000000000e+00 0.0000000000000000e+00 0.0000000000000000e+00  2.4198006003896228e-04 -1.1963951623009545e-05 3.8147003955917301e-04  4.7694775728026706e-04 1.3243022062831014e-05 1.4433713553825031e-03  6.9500914800821052e-04 6.5625884238570300e-05 3.1598089467201420e-03  8.9323371782345270e-04 1.4206038966701741e-04 5.4743843671122830e-03  1.0713616872071435e-03 2.3959663928237537e-04 8.3290112613676904e-03  1.2296034069035301e-03 3.5572407153050138e-04 1.1665893468827501e-02  1.3683412722541670e-03 4.8817940661810620e-04 1.5428082707350153e-02  1.4881131934457639e-03 6.3483235795808927e-04 1.9559949166845118e-02  1.5896217725116684e-03 7.9364379131505983e-04 2.4007658612857988e-02  1.6737460926865588e-03 9.6266046859851053e-04 2.8719675080269597e-02  1.7415529157865080e-03 1.1400253075677894e-03 3.3647293265614719e-02  1.7943064481412687e-03 1.3239941799879419e-03 3.8745199386132252e-02  1.8334764216271491e-03 1.5129556928626269e-03 4.3972056801592357e-02  1.8607444694966157e-03 1.7054525162074868e-03 4.9291111822822510e-02  1.8780088929811875e-03 1.9002036675389363e-03 5.4670815053660324e-02  1.8873878523178779e-03 2.0961272287393657e-03 6.0085453871748407e-02  1.8912226900580163e-03 2.2923619556572245e-03 6.5515793886642859e-02  1.8921347314155906e-03 2.4882911607221917e-03 7.0949766544360873e-02  0.0000000000000000e+00 0.0000000000000000e+00 0.0000000000000000e+00  2.2858328275414177e-04 -2.1466282987477226e-05 3.6152796202162994e-04  4.5755592153171130e-04 2.0967027735346133e-06 1.4101732613619113e-03  6.7069919544521499e-04 5.4435651607444349e-05 3.1179885382567251e-03  8.6436358783615523e-04 1.3154111887597934e-04 5.4262006971981386e-03  1.0383619246616689e-03 2.3002703613711560e-04 8.2757960766792066e-03  1.1929568002601104e-03 3.4720438760025142e-04 1.1608583852664424e-02  1.3285411466698565e-03 4.8073015608857361e-04 1.5367441237175079e-02  1.4456428272709395e-03 6.2843597258788631e-04 1.9496647523375273e-02  1.5449437610813889e-03 7.8826149080919359e-04 2.3942305494532735e-02  1.6272951369349993e-03 9.5823861531005273e-04 2.8652822111556429e-02  1.6937296947019222e-03 1.1364975456286204e-03 3.3579432277375768e-02  1.7454717941503806e-03 1.3212819793139863e-03 3.8676756297584880e-02  1.7839455402116637e-03 1.5109683383278413e-03 4.3903384158569411e-02  1.8107811432075990e-03 1.7040869422150053e-03 4.9222480827570310e-02  1.8278197499471884e-03 1.8993442680136248e-03 5.4602407476088473e-02  1.8371174941324117e-03 2.0956457670302719e-03 6.0017354235011096e-02  1.8409475530870626e-03 2.2921159440064728e-03 6.5447982224121723e-02  1.8418557833574203e-03 2.4880999002905631e-03 7.0882122271987535e-02  0.0000000000000000e+00 0.0000000000000000e+00 0.0000000000000000e+00  2.0655331060282536e-04 -3.1129693066504469e-05 3.3439498798895726e-04  4.2947295273437417e-04 -8.5819270779205366e-06 1.3687434085988912e-03  6.3819571047653246e-04 4.4018777391800074e-05 3.0681703330950076e-03  8.2790998301017125e-04 1.2187659749507999e-04 5.3705765911215911e-03  9.9847875585599077e-04 2.2128215302832994e-04 8.2158525944573714e-03  1.1501613322475917e-03 3.3943496371581489e-04 1.1545314106099850e-02  1.2833304331199085e-03 4.7394158920828391e-04 1.5301615640968894e-02  1.3984878712003776e-03 6.2260788855107198e-04 1.9428921036526308e-02  1.4962847644771904e-03 7.8335766008137252e-04 2.3873255651109752e-02  1.5775362702010172e-03 9.5421063779516308e-04 2.8582958821351763e-02  1.6432334625393131e-03 1.1332859978959674e-03 3.3509196419249709e-02  1.6945531813279831e-03 1.3188166029529829e-03 3.8606513923843400e-02  1.7328660447879403e-03 1.5091679077105960e-03 4.3833419010749185e-02  1.7597427649221351e-03 1.7028590496024204e-03 4.9152986245368929e-02  1.7769590173599339e-03 1.8985850688467076e-03 5.4533478132268831e-02  1.7864995021351227e-03 2.0952394547888997e-03 5.9948977855726164e-02  1.7905646192532647e-03 2.2919379546754645e-03 6.5380027775022248e-02  1.7915717393287190e-03 2.4879735070886667e-03 7.0814356815689011e-02  0.0000000000000000e+00 0.0000000000000000e+00 0.0000000000000000e+00  1.5989703059597588e-04 3.2620240629356070e-05 3.7722214690483658e-04  3.0583272555583560e-04 6.7393319934798838e-05 1.4753178839378379e-03  4.3902010003109005e-04 1.2476084922297191e-04 3.2328026327721943e-03  5.5981907947303875e-04 2.0339849228445119e-04 5.5870127641521215e-03  6.6831602240898565e-04 3.0173749698407054e-04 8.4783788353105065e-03  7.6463740012902375e-04 4.1787190950006071e-04 1.1848598553431920e-02  8.4901243073060646e-04 5.4980447034080383e-04 1.5640555691549637e-02  9.2177373107053394e-04 6.9553812258161814e-04 1.9798599449427877e-02  9.8335895367482958e-04 8.5312071396764441e-04 2.4268950478838484e-02  1.0343157853185700e-03 1.0206730794929211e-03 2.9000176450339414e-02  1.0753079197803330e-03 1.1964117555104854e-03 3.3943715134401163e-02  1.1071206571421526e-03 1.3786703451028732e-03 3.9054432890131129e-02  1.1306656349654642e-03 1.5659208681763686e-03 4.4291210433343664e-02  1.1469845761211523e-03 1.7567954312404479e-03 4.9617549604586343e-02  1.1572521779633232e-03 1.9501081625499586e-03 5.5002195919209858e-02  1.1627787573334155e-03 2.1448774012216123e-03 6.0419772633932889e-02  1.1650149600359245e-03 2.3403508804062316e-03 6.5851428270784343e-02  1.1655517335530466e-03 2.5360415626872871e-03 7.1285531873445010e-02  0.0000000000000000e+00 0.0000000000000000e+00 0.0000000000000000e+00  1.4620558193565459e-04 2.1713508903577526e-05 3.8722732774861739e-04  2.8849089277209440e-04 5.8340319755963800e-05 1.4829614502126797e-03  4.1639076201763355e-04 1.1650765727582533e-04 3.2325314935647050e-03  5.3235148189087933e-04 1.9595041962407224e-04 5.5779219612556545e-03  6.3650943127352541e-04 2.9509169127620510e-04 8.4606687688374253e-03  7.2900546109068616e-04 4.1201725849636069e-04 1.1822840397662387e-02  8.1006398734734047e-04 5.4472207997406132e-04 1.5607452586990554e-02  8.8000318569049106e-04 6.9120188541241560e-04 1.9758902039190181e-02  9.3923947829646940e-04 8.4949727812180385e-04 2.4223422906235935e-02  9.8829353141288191e-04 1.0177215573333571e-03 2.8949580219088181e-02  1.0277964729699532e-03 1.1940833744728820e-03 3.3888799267757605e-02  1.0584954686874597e-03 1.3769081257806203e-03 3.8995926126212353e-02  1.0812583637229709e-03 1.5646593601910035e-03 4.4229813880376681e-02  1.0970773421177065e-03 1.7559605186337961e-03 4.9553929255598331e-02  1.1070716593014859e-03 1.9496169456373459e-03 5.4936974669149971e-02  1.1124896478681954e-03 2.1446382233543744e-03 6.0353521110151735e-02  1.1147119345811909e-03 2.3402638305326708e-03 6.5784650870842079e-02  1.1152683292157066e-03 2.5360099524711186e-03 7.1218647339665389e-02  0.0000000000000000e+00 0.0000000000000000e+00 0.0000000000000000e+00  1.3699252426717891e-04 1.4564508293539574e-05 3.9092491849894385e-04  2.7250998922213106e-04 5.0753517169568692e-05 1.4822073935594892e-03  3.9486520146592022e-04 1.0931760216574820e-04 3.2243052524023792e-03  5.0580660076664100e-04 1.8937202075196356e-04 5.5616054071836729e-03  6.0549575046646789e-04 2.8918856209564472e-04 8.4365075161227914e-03  6.9405738679721599e-04 4.0680214400670256e-04 1.1791401942131184e-02  7.7170013647592101e-04 5.4018617868809200e-04 1.5569422531557867e-02  8.3872420832092811e-04 6.8732495486829360e-04 1.9715004875677747e-02  8.9552404609058358e-04 8.4625083493048868e-04 2.4174389002826750e-02  9.4259362368565632e-04 1.0150697742028331e-03 2.8896129696047327e-02  9.8053226801878999e-04 1.1919831976775629e-03 3.3831631922368412e-02  1.0100499617422087e-03 1.3753091493438631e-03 3.8935713357693344e-02  1.0319717892104535e-03 1.5635036539457113e-03 4.4167191114914774e-02  1.0472414462146468e-03 1.7551824964761131e-03 4.9489488318084501e-02  1.0569237522284878e-03 1.9491433406900276e-03 5.4871255847019004e-02  1.0622060094338239e-03 2.1443882165542720e-03 6.0287004576332168e-02  1.0644002556144615e-03 2.3401489995242900e-03 6.5717746240280678e-02  1.0649682904020500e-03 2.5359355655271464e-03 7.1151676550015960e-02  0.0000000000000000e+00 0.0000000000000000e+00 0.0000000000000000e+00  1.2932867857234803e-04 9.1339176284547677e-06 3.8888237459894963e-04  2.5768913486476266e-04 4.4278404857368596e-05 1.4733163334501075e-03  3.7430470679048893e-04 1.0288099621185969e-04 3.2077526967544843e-03  4.8014026757208108e-04 1.8335964939772496e-04 5.5374761621294032e-03  5.7527764112404753e-04 2.8374550091995690e-04 8.4052690749062287e-03  6.5982134646009423e-04 4.0197260531078474e-04 1.1753683633055073e-02  7.3396544977588553e-04 5.3597410007836556e-04 1.5525915121589530e-02  7.9799308754239335e-04 6.8371623543267196e-04 1.9666414142204464e-02  8.5227747799043296e-04 8.4322107597393570e-04 2.4121413140173902e-02  8.9728664144581927e-04 1.0125868331989586e-03 2.8839446558056071e-02  9.3358887257268572e-04 1.1900079313854730e-03 3.3771889922751305e-02  9.6185777723831699e-04 1.3737955341715864e-03 3.8873523554104540e-02  9.8287651773492041e-04 1.5623987170888943e-03 4.4103119546737402e-02  9.9754116926399693e-04 1.7544262382911406e-03 4.9424048275380120e-02  1.0068630710409719e-03 1.9486687661376372e-03 5.4804899985880839e-02  1.0119698185001435e-03 2.1441214584126036e-03 6.0220116902138049e-02  1.0141072415417141e-03 2.3400085272786424e-03 6.5650633568857863e-02  1.0146697013536212e-03 2.5358256042070796e-03 7.1084551936046861e-02  0.0000000000000000e+00 0.0000000000000000e+00 0.0000000000000000e+00  1.2172757255616999e-04 4.5375508174578376e-06 3.8169047021915968e-04  2.4315338029933358e-04 3.8561961665457795e-05 1.4567302917633024e-03  3.5404246401811055e-04 9.7008020826509466e-05 3.1829930819972513e-03  4.5478374924882775e-04 1.7779203018273185e-04 5.5055038217008637e-03  5.4535868953422141e-04 2.7866982224578871e-04 8.3668649503496340e-03  6.2586430596731470e-04 3.9745311812451682e-04 1.1709579305789459e-02  6.9648601027463267e-04 5.3202390153944549e-04 1.5476823327723696e-02  7.5749202095606990e-04 6.8032598684608788e-04 1.9613028460004411e-02  8.0923520431038800e-04 8.4036965032456513e-04 2.4064401990144823e-02  8.5215806340316574e-04 1.0102450630981878e-03 2.8779446302330546e-02  8.8679814251056417e-04 1.1881398261988447e-03 3.3709497703400655e-02  9.1379290389765830e-04 1.3723585905965579e-03 3.8809289899592050e-02  9.3388381222871640e-04 1.5613439284585383e-03 4.4037540753685822e-02  9.4791956336447842e-04 1.7536980470806826e-03 4.9357558609293278e-02  9.5685838494539370e-04 1.9482051010760045e-03 5.4737863807245851e-02  9.6176901804985926e-04 2.1438537953840158e-03 6.0152821003919853e-02  9.6383252611187777e-04 2.3398603839348948e-03 6.5583279709359385e-02  9.6437674375655154e-04 2.5357018048560126e-03 7.1017244715794584e-02  0.0000000000000000e+00 0.0000000000000000e+00 0.0000000000000000e+00  1.1346826125043232e-04 1.3080541637407594e-07 3.6920736201119384e-04  2.2823086355927165e-04 3.3241429895316403e-05 1.4324630165723348e-03  3.3351812262944462e-04 9.1516986807265956e-05 3.1500789610505501e-03  4.2922509307432270e-04 1.7256617688717198e-04 5.4657052103487718e-03  5.1527304539289052e-04 2.7389286172208483e-04 8.3212848463497455e-03  5.9176718308343523e-04 3.9319205192520177e-04 1.1659066437734801e-02  6.5888948976810862e-04 5.2829477289126174e-04 1.5422120333135492e-02  7.1689481913797125e-04 6.7712189679270556e-04 1.9554820328395273e-02  7.6611610071968667e-04 8.3767176332385303e-04 2.4003328994853600e-02  8.0697033769225822e-04 1.0080266465282517e-03 2.8716104127331769e-02  8.3996418153673270e-04 1.1863676164203766e-03 3.3644432716708562e-02  8.6569874074774898e-04 1.3709931721389921e-03 3.8742992478602439e-02  8.8487354432559631e-04 1.5603397726596602e-03 4.3970437781475323e-02  8.9828966855468062e-04 1.7530034653266884e-03 4.9290005614691927e-02  9.0685206969637810e-04 1.9477622428407859e-03 5.4670137024437959e-02  9.1157093100987878e-04 2.1435986907826022e-03 6.0085109747224454e-02  9.1356259422306261e-04 2.3397210022762234e-03 6.5515679585611844e-02  9.1408526149195344e-04 2.5355850242874353e-03 7.0949751801755487e-02  0.0000000000000000e+00 0.0000000000000000e+00 0.0000000000000000e+00  1.0394089820705170e-04 -4.8239223415697797e-06 3.5041760095090655e-04  2.1219363300714451e-04 2.7825290951500216e-05 1.3999922105905232e-03  3.1200704971816697e-04 8.6087187563702597e-05 3.1088037812796996e-03  4.0276066266425626e-04 1.6745384204243073e-04 5.4179730995243753e-03  4.8436139081550262e-04 2.6923736349872165e-04 8.2684554220497364e-03  5.5692635257192848e-04 3.8904425251380062e-04 1.1602087573568174e-02  6.2063220930654592e-04 5.2466569621499744e-04 1.5361759593266015e-02  6.7571896283719296e-04 6.7400358950799456e-04 1.9491752591097703e-02  7.2249859009119782e-04 8.3504580909800645e-04 2.3938165815818424e-02  7.6136176711685550e-04 1.0058673722099722e-03 2.8649400188208562e-02  7.9278346219870642e-04 1.1846431710990789e-03 3.3576683314215504e-02  8.1732762335981609e-04 1.3696658041927314e-03 3.8674627492740164e-02  8.3565100847517518e-04 1.5593658286418308e-03 4.3901814253522610e-02  8.4850621279251512e-04 1.7523333137545094e-03 4.9221399799177119e-02  8.5674401729126856e-04 1.9473401977659634e-03 5.4601736316853403e-02  8.6131542679496902e-04 2.1433631295539528e-03 6.0017004751153083e-02  8.6327120307282817e-04 2.3396032401586352e-03 6.5447857283053551e-02  8.6378