<?xml version="1.0"?>
<VTKFile type="UnstructuredGrid"  version="0.1"  >
<UnstructuredGrid>
<Piece  NumberOfPoints="760" NumberOfCells="3024">
<Points>
<DataArray  type="Float64"  NumberOfComponents="3"  format="ascii">0 0 0  0.05555555555555555 0 0  0.1111111111111111 0 0  0.1666666666666667 0 0  0.2222222222222222 0 0  0.2777777777777778 0 0  0.3333333333333333 0 0  0.3888888888888889 0 0  0.4444444444444444 0 0  0.5 0 0  0.5555555555555556 0 0  0.6111111111111112 0 0  0.6666666666666666 0 0  0.7222222222222222 0 0  0.7777777777777778 0 0  0.8333333333333334 0 0  0.8888888888888888 0 0  0.9444444444444444 0 0  1 0 0  0 0.01428571428571429 0  0.05555555555555555 0.01428571428571429 0  0.1111111111111111 0.01428571428571429 0  0.1666666666666667 0.01428571428571429 0  0.2222222222222222 0.01428571428571429 0  0.2777777777777778 0.01428571428571429 0  0.3333333333333333 0.01428571428571429 0  0.3888888888888889 0.01428571428571429 0  0.4444444444444444 0.01428571428571429 0  0.5 0.01428571428571429 0  0.5555555555555556 0.01428571428571429 0  0.6111111111111112 0.01428571428571429 0  0.6666666666666666 0.01428571428571429 0  0.7222222222222222 0.01428571428571429 0  0.7777777777777778 0.01428571428571429 0  0.8333333333333334 0.01428571428571429 0  0.8888888888888888 0.01428571428571429 0  0.9444444444444444 0.01428571428571429 0  1 0.01428571428571429 0  0 0.02857142857142857 0  0.05555555555555555 0.02857142857142857 0  0.1111111111111111 0.02857142857142857 0  0.1666666666666667 0.02857142857142857 0  0.2222222222222222 0.02857142857142857 0  0.2777777777777778 0.02857142857142857 0  0.3333333333333333 0.02857142857142857 0  0.3888888888888889 0.02857142857142857 0  0.4444444444444444 0.02857142857142857 0  0.5 0.02857142857142857 0  0.5555555555555556 0.02857142857142857 0  0.6111111111111112 0.02857142857142857 0  0.6666666666666666 0.02857142857142857 0  0.7222222222222222 0.02857142857142857 0  0.7777777777777778 0.02857142857142857 0  0.8333333333333334 0.02857142857142857 0  0.8888888888888888 0.02857142857142857 0  0.9444444444444444 0.02857142857142857 0  1 0.02857142857142857 0  0 0.04285714285714286 0  0.05555555555555555 0.04285714285714286 0  0.1111111111111111 0.04285714285714286 0  0.1666666666666667 0.04285714285714286 0  0.2222222222222222 0.04285714285714286 0  0.2777777777777778 0.04285714285714286 0  0.3333333333333333 0.04285714285714286 0  0.3888888888888889 0.04285714285714286 0  0.4444444444444444 0.04285714285714286 0  0.5 0.04285714285714286 0  0.5555555555555556 0.04285714285714286 0  0.6111111111111112 0.04285714285714286 0  0.6666666666666666 0.04285714285714286 0  0.7222222222222222 0.04285714285714286 0  0.7777777777777778 0.04285714285714286 0  0.8333333333333334 0.04285714285714286 0  0.8888888888888888 0.04285714285714286 0  0.9444444444444444 0.04285714285714286 0  1 0.04285714285714286 0  0 0.05714285714285715 0  0.05555555555555555 0.05714285714285715 0  0.1111111111111111 0.05714285714285715 0  0.1666666666666667 0.05714285714285715 0  0.2222222222222222 0.05714285714285715 0  0.2777777777777778 0.05714285714285715 0  0.3333333333333333 0.05714285714285715 0  0.3888888888888889 0.05714285714285715 0  0.4444444444444444 0.05714285714285715 0  0.5 0.05714285714285715 0  0.5555555555555556 0.05714285714285715 0  0.6111111111111112 0.05714285714285715 0  0.6666666666666666 0.05714285714285715 0  0.7222222222222222 0.05714285714285715 0  0.7777777777777778 0.05714285714285715 0  0.8333333333333334 0.05714285714285715 0  0.8888888888888888 0.05714285714285715 0  0.9444444444444444 0.05714285714285715 0  1 0.05714285714285715 0  0 0.07142857142857142 0  0.05555555555555555 0.07142857142857142 0  0.1111111111111111 0.07142857142857142 0  0.1666666666666667 0.07142857142857142 0  0.2222222222222222 0.07142857142857142 0  0.2777777777777778 0.07142857142857142 0  0.3333333333333333 0.07142857142857142 0  0.3888888888888889 0.07142857142857142 0  0.4444444444444444 0.07142857142857142 0  0.5 0.07142857142857142 0  0.5555555555555556 0.07142857142857142 0  0.6111111111111112 0.07142857142857142 0  0.6666666666666666 0.07142857142857142 0  0.7222222222222222 0.07142857142857142 0  0.7777777777777778 0.07142857142857142 0  0.8333333333333334 0.07142857142857142 0  0.8888888888888888 0.07142857142857142 0  0.9444444444444444 0.07142857142857142 0  1 0.07142857142857142 0  0 0.08571428571428573 0  0.05555555555555555 0.08571428571428573 0  0.1111111111111111 0.08571428571428573 0  0.1666666666666667 0.08571428571428573 0  0.2222222222222222 0.08571428571428573 0  0.2777777777777778 0.08571428571428573 0  0.3333333333333333 0.08571428571428573 0  0.3888888888888889 0.08571428571428573 0  0.4444444444444444 0.08571428571428573 0  0.5 0.08571428571428573 0  0.5555555555555556 0.08571428571428573 0  0.6111111111111112 0.08571428571428573 0  0.6666666666666666 0.08571428571428573 0  0.7222222222222222 0.08571428571428573 0  0.7777777777777778 0.08571428571428573 0  0.8333333333333334 0.08571428571428573 0  0.8888888888888888 0.08571428571428573 0  0.9444444444444444 0.08571428571428573 0  1 0.08571428571428573 0  0 0.1 0  0.05555555555555555 0.1 0  0.1111111111111111 0.1 0  0.1666666666666667 0.1 0  0.2222222222222222 0.1 0  0.2777777777777778 0.1 0  0.3333333333333333 0.1 0  0.3888888888888889 0.1 0  0.4444444444444444 0.1 0  0.5 0.1 0  0.5555555555555556 0.1 0  0.6111111111111112 0.1 0  0.6666666666666666 0.1 0  0.7222222222222222 0.1 0  0.7777777777777778 0.1 0  0.8333333333333334 0.1 0  0.8888888888888888 0.1 0  0.9444444444444444 0.1 0  1 0.1 0  0 0 0.01  0.05555555555555555 0 0.01  0.1111111111111111 0 0.01  0.1666666666666667 0 0.01  0.2222222222222222 0 0.01  0.2777777777777778 0 0.01  0.3333333333333333 0 0.01  0.3888888888888889 0 0.01  0.4444444444444444 0 0.01  0.5 0 0.01  0.5555555555555556 0 0.01  0.6111111111111112 0 0.01  0.6666666666666666 0 0.01  0.7222222222222222 0 0.01  0.7777777777777778 0 0.01  0.8333333333333334 0 0.01  0.8888888888888888 0 0.01  0.9444444444444444 0 0.01  1 0 0.01  0 0.01428571428571429 0.01  0.05555555555555555 0.01428571428571429 0.01  0.1111111111111111 0.01428571428571429 0.01  0.1666666666666667 0.01428571428571429 0.01  0.2222222222222222 0.01428571428571429 0.01  0.2777777777777778 0.01428571428571429 0.01  0.3333333333333333 0.01428571428571429 0.01  0.3888888888888889 0.01428571428571429 0.01  0.4444444444444444 0.01428571428571429 0.01  0.5 0.01428571428571429 0.01  0.5555555555555556 0.01428571428571429 0.01  0.6111111111111112 0.01428571428571429 0.01  0.6666666666666666 0.01428571428571429 0.01  0.7222222222222222 0.01428571428571429 0.01  0.7777777777777778 0.01428571428571429 0.01  0.8333333333333334 0.01428571428571429 0.01  0.8888888888888888 0.01428571428571429 0.01  0.9444444444444444 0.01428571428571429 0.01  1 0.01428571428571429 0.01  0 0.02857142857142857 0.01  0.05555555555555555 0.02857142857142857 0.01  0.1111111111111111 0.02857142857142857 0.01  0.1666666666666667 0.02857142857142857 0.01  0.2222222222222222 0.02857142857142857 0.01  0.2777777777777778 0.02857142857142857 0.01  0.3333333333333333 0.02857142857142857 0.01  0.3888888888888889 0.02857142857142857 0.01  0.4444444444444444 0.02857142857142857 0.01  0.5 0.02857142857142857 0.01  0.5555555555555556 0.02857142857142857 0.01  0.6111111111111112 0.02857142857142857 0.01  0.6666666666666666 0.02857142857142857 0.01  0.7222222222222222 0.02857142857142857 0.01  0.7777777777777778 0.02857142857142857 0.01  0.8333333333333334 0.02857142857142857 0.01  0.8888888888888888 0.02857142857142857 0.01  0.9444444444444444 0.02857142857142857 0.01  1 0.02857142857142857 0.01  0 0.04285714285714286 0.01  0.05555555555555555 0.04285714285714286 0.01  0.1111111111111111 0.04285714285714286 0.01  0.1666666666666667 0.04285714285714286 0.01  0.2222222222222222 0.04285714285714286 0.01  0.2777777777777778 0.04285714285714286 0.01  0.3333333333333333 0.04285714285714286 0.01  0.3888888888888889 0.04285714285714286 0.01  0.4444444444444444 0.04285714285714286 0.01  0.5 0.04285714285714286 0.01  0.5555555555555556 0.04285714285714286 0.01  0.6111111111111112 0.04285714285714286 0.01  0.6666666666666666 0.04285714285714286 0.01  0.7222222222222222 0.04285714285714286 0.01  0.7777777777777778 0.04285714285714286 0.01  0.8333333333333334 0.04285714285714286 0.01  0.8888888888888888 0.04285714285714286 0.01  0.9444444444444444 0.04285714285714286 0.01  1 0.04285714285714286 0.01  0 0.05714285714285715 0.01  0.05555555555555555 0.05714285714285715 0.01  0.1111111111111111 0.05714285714285715 0.01  0.1666666666666667 0.05714285714285715 0.01  0.2222222222222222 0.05714285714285715 0.01  0.2777777777777778 0.05714285714285715 0.01  0.3333333333333333 0.05714285714285715 0.01  0.3888888888888889 0.05714285714285715 0.01  0.4444444444444444 0.05714285714285715 0.01  0.5 0.05714285714285715 0.01  0.5555555555555556 0.05714285714285715 0.01  0.6111111111111112 0.05714285714285715 0.01  0.6666666666666666 0.05714285714285715 0.01  0.7222222222222222 0.05714285714285715 0.01  0.7777777777777778 0.05714285714285715 0.01  0.8333333333333334 0.05714285714285715 0.01  0.8888888888888888 0.05714285714285715 0.01  0.9444444444444444 0.05714285714285715 0.01  1 0.05714285714285715 0.01  0 0.07142857142857142 0.01  0.05555555555555555 0.07142857142857142 0.01  0.1111111111111111 0.07142857142857142 0.01  0.1666666666666667 0.07142857142857142 0.01  0.2222222222222222 0.07142857142857142 0.01  0.2777777777777778 0.07142857142857142 0.01  0.3333333333333333 0.07142857142857142 0.01  0.3888888888888889 0.07142857142857142 0.01  0.4444444444444444 0.07142857142857142 0.01  0.5 0.07142857142857142 0.01  0.5555555555555556 0.07142857142857142 0.01  0.6111111111111112 0.07142857142857142 0.01  0.6666666666666666 0.07142857142857142 0.01  0.7222222222222222 0.07142857142857142 0.01  0.7777777777777778 0.07142857142857142 0.01  0.8333333333333334 0.07142857142857142 0.01  0.8888888888888888 0.07142857142857142 0.01  
[...]
<PointData  Vectors="f_33"> 
<DataArray  type="Float64"  Name="f_33"  NumberOfComponents="3" format="ascii">0.0000000000000000e+00 0.0000000000000000e+00 0.0000000000000000e+00  -9.3028289137964452e-04 -3.6134181950025010e-05 -1.3777762466499041e-03  -1.7388713853934055e-03 1.2659270824048679e-04 -5.3116326237616762e-03  -2.4816761610449416e-03 3.9044667813925603e-04 -1.1636397612771895e-02  -3.1599789179436919e-03 7.3656246032793263e-04 -2.0142599075199146e-02  -3.7743713340539805e-03 1.1536553629208461e-03 -3.0631340115543016e-02  -4.3249264704344715e-03 1.6332363389473441e-03 -4.2906034862529446e-02  -4.8119529548319466e-03 2.1677592484530290e-03 -5.6771374705567410e-02  -5.2361662123568279e-03 2.7500409953870549e-03 -7.2033771808981642e-02  -5.5987981852624290e-03 3.3730933222447727e-03 -8.8502490578904316e-02  -5.9017168523064593e-03 4.0301101125411222e-03 -1.0599128904706411e-01  -6.1475477712372795e-03 4.7145213518318928e-03 -1.2432050527906240e-01  -6.3397864559052355e-03 5.4200813590537990e-03 -1.4331953837770203e-01  -6.4828949827854306e-03 6.1409781687727146e-03 -1.6282966960535478e-01  -6.5823797268692820e-03 6.8719578252592582e-03 -1.8270716340308329e-01  -6.6448501329356572e-03 7.6084602704774278e-03 -2.0282658582926993e-01  -6.6780657321973717e-03 8.3467645266978256e-03 -2.2308428186827542e-01  -6.6909938401089660e-03 9.0841377925001982e-03 -2.4340198874555982e-01  -6.6937687821213244e-03 9.8190609557468403e-03 -2.6373085485550263e-01  0.0000000000000000e+00 0.0000000000000000e+00 0.0000000000000000e+00  -8.9707708349486351e-04 9.4737582759224081e-06 -1.4196383147097877e-03  -1.7341646978168853e-03 1.6720037372890364e-04 -5.3420626391595151e-03  -2.5023828099906796e-03 4.2746340336229072e-04 -1.1638218407380461e-02  -3.2044183326266611e-03 7.7011256086827217e-04 -2.0112555318795713e-02  -3.8407163324293359e-03 1.1837635948303356e-03 -3.0569965445899728e-02  -4.4113439944314034e-03 1.6599226639485594e-03 -4.2815137838967947e-02  -4.9166084581438096e-03 2.1910624427562905e-03 -5.6653238349717701e-02  -5.3572164606746579e-03 2.7700266492417004e-03 -7.1890879054901602e-02  -5.7343902490668156e-03 3.3898602987152758e-03 -8.8337420717607154e-02  -6.0499943704924808e-03 4.0437970396178047e-03 -1.0580667217031824e-01  -6.3066633190748860e-03 4.7253126989158798e-03 -1.2411899429809868e-01  -6.5079193181001999e-03 5.4282127022356394e-03 -1.4310378362010215e-01  -6.6582738462605132e-03 6.1467404224834592e-03 -1.6260229053273281e-01  -6.7633097348404085e-03 6.8757002948124412e-03 -1.8247071557171077e-01  -6.8297431912215326e-03 7.6105924225705118e-03 -2.0258352206135033e-01  -6.8654707123178820e-03 8.3477565737659597e-03 -2.2283690500066913e-01  -6.8796342534881818e-03 9.0845150908281137e-03 -2.4315238321781157e-01  -6.8828042021829017e-03 9.8192565165944844e-03 -2.6348073362605956e-01  0.0000000000000000e+00 0.0000000000000000e+00 0.0000000000000000e+00  -9.0385107307470504e-04 4.4585395391900035e-05 -1.4370131826086532e-03  -1.7587454925365054e-03 2.0748692951021410e-04 -5.3440053367582504e-03  -2.5483869945494854e-03 4.6680045248307116e-04 -1.1612455936613300e-02  -3.2712155446237338e-03 8.0668707929405184e-04 -2.0057080571218151e-02  -3.9268203902105376e-03 1.2169605551269730e-03 -3.0485599092570759e-02  -4.5150572482720629e-03 1.6895480676840239e-03 -4.2703752890936940e-02  -5.0361728525448813e-03 2.2170807416470573e-03 -5.6517114850770316e-02  -5.4908585083107758e-03 2.7924772223767115e-03 -7.1732462237276973e-02  -5.8803421527058707e-03 3.4088338065007520e-03 -8.8159223443165444e-02  -6.2065116182978457e-03 4.0594315873713387e-03 -1.0561122799948275e-01  -6.4720438460562288e-03 4.7377964770330258e-03 -1.2390882612760605e-01  -6.6805257820297982e-03 5.4377883361896688e-03 -1.4288137465624562e-01  -6.8365593795776999e-03 6.1537091972548585e-03 -1.6237005283650299e-01  -6.9458469431884079e-03 6.8804254137678307e-03 -1.8223095468451794e-01  -7.0152554608065186e-03 7.6135006920658981e-03 -2.0233839722599320e-01  -7.0528623960057265e-03 8.3493385516974564e-03 -2.2258838379503620e-01  -7.0680142316493820e-03 9.0853249655035648e-03 -2.4290218418888335e-01  -7.0715371227120447e-03 9.8198327726770757e-03 -2.6323021232937582e-01  0.0000000000000000e+00 0.0000000000000000e+00 0.0000000000000000e+00  -9.1689667436618350e-04 7.5505263511039652e-05 -1.4335766556877409e-03  -1.7898402229361917e-03 2.4710274952964676e-04 -5.3163507082969212e-03  -2.6005289296185019e-03 5.0749851079595328e-04 -1.1556611747287955e-02  -3.3436801732166306e-03 8.4529212367380013e-04 -1.9973213400342582e-02  -4.0180471683503470e-03 1.2523139688078507e-03 -3.0375284802315348e-02  -4.6233197067851138e-03 1.7212476663366130e-03 -4.2569113550009939e-02  -5.1597077118300935e-03 2.2450138054844419e-03 -5.6360495163789125e-02  -5.6278986806591203e-03 2.8166557017611019e-03 -7.1556292560109716e-02  -6.0291345473648880e-03 3.4293403259802045e-03 -8.7965954704513738e-02  -6.3653343649053232e-03 4.0764045707647519e-03 -1.0540329300159196e-01  -6.6392259958994154e-03 4.7514288875938181e-03 -1.2368860807526021e-01  -6.8544703195367951e-03 5.4483308066641065e-03 -1.4265117541559116e-01  -7.0157696474151352e-03 6.1614740336617159e-03 -1.6213205835858413e-01  -7.1289561877792493e-03 6.8857899631672801e-03 -1.8198719705766578e-01  -7.2010588077470010e-03 7.6169090562163864e-03 -2.0209071360428904e-01  -7.2403479503560519e-03 8.3513012683122927e-03 -2.2233837222842259e-01  -7.2563796751937189e-03 9.0864206710256617e-03 -2.4265115119545030e-01  -7.2602072078891342e-03 9.8207017973542341e-03 -2.6297906832689205e-01  0.0000000000000000e+00 0.0000000000000000e+00 0.0000000000000000e+00  -9.2806179345016635e-04 1.0641531633381818e-04 -1.4109331917552131e-03  -1.8213077862940413e-03 2.8725643970356853e-04 -5.2604620473071248e-03  -2.6539764196181473e-03 5.4947385815245088e-04 -1.1470801172665005e-02  -3.4177175067842897e-03 8.8550021062125351e-04 -1.9860593221134430e-02  -4.1108599979797029e-03 1.2893168423555297e-03 -3.0238497400162431e-02  -4.7330904701082723e-03 1.7545166841391843e-03 -4.2410659796210566e-02  -5.2846387441370631e-03 2.2743847483734153e-03 -5.6182837227250919e-02  -5.7662085141544587e-03 2.8421210595783661e-03 -7.1361866265423568e-02  -6.1790633489671540e-03 3.4509768150780416e-03 -8.7757156357101671e-02  -6.5251568399464282e-03 4.0943509384463181e-03 -1.0518245671386237e-01  -6.8072696308970754e-03 4.7658819776065413e-03 -1.2345797719869608e-01  -7.0291380308000499e-03 5.4595478596135318e-03 -1.4241286918798771e-01  -7.1955662583688598e-03 6.1697765767802634e-03 -1.6188803455639347e-01  -7.3125181907076585e-03 6.8915673564385500e-03 -1.8173921150457664e-01  -7.3871869335548398e-03 7.6206204873106717e-03 -2.0184027759910136e-01  -7.4280405537704656e-03 8.3534751161286735e-03 -2.2208670905496908e-01  -7.4448516277919622e-03 9.0876568908248058e-03 -2.4239914732841106e-01  -7.4489125901396778e-03 9.8217261175252719e-03 -2.6272719382250831e-01  0.0000000000000000e+00 0.0000000000000000e+00 0.0000000000000000e+00  -9.3448407859035294e-04 1.4088544823588354e-04 -1.3682208206968686e-03  -1.8502841947763123e-03 3.2989349025889229e-04 -5.1761494192493502e-03  -2.7061915429874408e-03 5.9344377743409239e-04 -1.1354924041732739e-02  -3.4910547953406960e-03 9.2749502511098802e-04 -1.9719025131397359e-02  -4.2032377375062699e-03 1.3279585746348748e-03 -3.0074986687921287e-02  -4.8425990942687382e-03 1.7892744746698184e-03 -4.2228129555966880e-02  -5.4094430710087370e-03 2.3050867987209050e-03 -5.5983889577438620e-02  -5.9045068551862338e-03 2.8687557835841309e-03 -7.1148952509703337e-02  -6.3290805429034947e-03 3.4736201109734390e-03 -8.7532622345689856e-02  -6.6851523555346284e-03 4.1131432819614053e-03 -1.0494853949800827e-01  -6.9755538496225934e-03 4.7810242696409580e-03 -1.2321678075064299e-01  -7.2040941277443362e-03 5.4713038290001804e-03 -1.4216632995754591e-01  -7.3756764378603620e-03 6.1784769139768166e-03 -1.6163788150462108e-01  -7.4963934514248667e-03 6.8976136059780745e-03 -1.8148692301826708e-01  -7.5735999398077267e-03 7.6244876313607867e-03 -2.0158703705885272e-01  -7.6159621030453444e-03 8.3557112980875529e-03 -2.2183336114152552e-01  -7.6334795681481929e-03 9.0888858229037726e-03 -2.4214615348202950e-01  -7.6377062414364942e-03 9.8227471109433463e-03 -2.6247458679630681e-01  0.0000000000000000e+00 0.0000000000000000e+00 0.0000000000000000e+00  -9.3209074383253452e-04 1.8203247182174513e-04 -1.3013028942726989e-03  -1.8719388443898034e-03 3.7686046898617885e-04 -5.0611018297759391e-03  -2.7522289732874942e-03 6.4031299683326554e-04 -1.1207796068802020e-02  -3.5589387195790541e-03 9.7168635072736570e-04 -1.9547711393936379e-02  -4.2907897966959511e-03 1.3684300921469692e-03 -2.9884122706285991e-02  -4.9478836657002867e-03 1.8256151843752400e-03 -4.2020997829073307e-02  -5.5306099675479963e-03 2.3371657139053437e-03 -5.5763212861343309e-02  -6.0397384945551124e-03 2.8965754662424927e-03 -7.0917190771223243e-02  -6.4765812396130147e-03 3.4972621900739233e-03 -8.7292067596854719e-02  -6.8431541985978098e-03 4.1327522131412147e-03 -1.0470132878356327e-01  -7.1423314265869411e-03 4.7968058889183195e-03 -1.2296487504111435e-01  -7.3779853091317403e-03 5.4835290190654298e-03 -1.4191147813770258e-01  -7.5551078553221587e-03 6.1874864432645196e-03 -1.6138157754013069e-01  -7.6799097666135820e-03 6.9038225485192947e-03 -1.8123036008105578e-01  -7.7598963267968878e-03 7.6283887344972632e-03 -2.0133106079605770e-01  -7.8039225379820483e-03 8.3578761285558797e-03 -2.2157842439755743e-01  -7.8222227506494438e-03 9.0899642172275700e-03 -2.4189227619511761e-01  -7.8266130741157323e-03 9.8236023627403593e-03 -2.6222135127963064e-01  0.0000000000000000e+00 0.0000000000000000e+00 0.0000000000000000e+00  -9.0281002254426548e-04 2.2739716588258995e-04 -1.2081117661550606e-03  -1.8657197380447976e-03 4.2576821473846511e-04 -4.9152968326014171e-03  -2.7717225394707397e-03 6.8773511660774145e-04 -1.1030616312035557e-02  -3.6020859009801729e-03 1.0158047930237432e-03 -1.9348235144935076e-02  -4.3557678821315084e-03 1.4086091275573201e-03 -2.9667569241723788e-02  -5.0329098649427298e-03 1.8616090810726614e-03 -4.1790890332048823e-02  -5.6338819701480594e-03 2.3689046010239938e-03 -5.5522348883943910e-02  -6.1594340649728380e-03 2.9240816032038985e-03 -7.0668020378655702e-02  -6.6108658300909392e-03 3.5206206221689703e-03 -8.7036820421919556e-02  -6.9901906414467172e-03 4.1521042415835268e-03 -1.0444203690813045e-01  -7.3002932201964785e-03 4.8123513942486757e-03 -1.2270335279954227e-01  -7.5450743992759514e-03 5.4955316130001373e-03 -1.4164928388748227e-01  -7.7295769956827933e-03 6.1962789157014187e-03 -1.6111996791958105e-01  -7.8600891084032627e-03 6.9098116088481872e-03 -1.8097024149174179e-01  -7.9442238475174072e-03 7.6320588845917251e-03 -2.0107294048140661e-01  -7.9909786205160406e-03 8.3597940726792552e-03 -2.2132236266746269e-01  -8.0107970271295088e-03 9.0907715235256474e-03 -2.4163782833500738e-01  -8.0156688889348234e-03 9.8241821735854037e-03 -2.6196762785062022e-01  0.0000000000000000e+00 0.0000000000000000e+00 0.0000000000000000e+00  -4.1104401195080683e-04 1.1592230456171362e-06 -1.3385490469214744e-03  -7.7952419834150357e-04 1.5510015526719027e-04 -5.2751494341045872e-03  -1.1158428448575777e-03 3.9773560073702786e-04 -1.1602629793769713e-02  -1.4230869343644442e-03 7.2074431003054632e-04 -2.0111674367216604e-02  -1.7016500955644976e-03 1.1152700804388715e-03 -3.0603311867088416e-02  -1.9514909931924670e-03 1.5736122497528122e-03 -4.2880922831335329e-02  -2.1727042827277372e-03 2.0885229924135790e-03 -5.6749172010703258e-02  -2.3655931256868572e-03 2.6529500363730329e-03 -7.2014447876983662e-02  -2.5307024507295627e-03 3.2599731508658717e-03 -8.8485989222910760e-02  -2.6688645735706566e-03 3.9028265850620286e-03 -1.0597752402224205e-01  -2.7812504435937501e-03 4.5749632482755759e-03 -1.2430935511238697e-01  -2.8694186374270771e-03 5.2701438585273461e-03 -1.4331084139406622e-01  -2.9353579348561178e-03 5.9825438497389883e-03 -1.6282321958084742e-01  -2.9815216712125630e-03 6.7068740202794741e-03 -1.8270270601143412e-01  -3.0108538354550948e-03 7.4385120784335188e-03 -2.0282381586342027e-01  -3.0268102458465974e-03 8.1736414400748972e-03 -2.2308284055439262e-01  -3.0333827477393113e-03 8.9093844682156757e-03 -2.4340145819852196e-01  -3.0350046841324013e-03 9.6439895330703036e-03 -2.6373061934019415e-01  0.0000000000000000e+00 0.0000000000000000e+00 0.0000000000000000e+00  -4.1294930157272168e-04 2.8633008021420132e-05 -1.3760849571212445e-03  -8.1060370830926987e-04 1.7735773278910335e-04 -5.3049397393918974e-03  -1.1695216541630935e-03 4.1809297911313769e-04 -1.1604183722509790e-02  -1.4975977942793955e-03 7.3925076715726295e-04 -2.0081487863053100e-02  -1.7951060982272463e-03 1.1319207806892463e-03 -3.0541833490376327e-02  -2.0620468047970863e-03 1.5884059097990896e-03 -4.2789933522303404e-02  -2.2985416177180840e-03 2.1014741286246291e-03 -5.6630945412337916e-02  -2.5049102631811491e-03 2.6640899561844911e-03 -7.1871464282474984e-02  -2.6817163378449662e-03 3.2693517870015457e-03 -8.8320828003983512e-02  -2.8298221639992569e-03 3.9105153518694969e-03 -1.0579281656145369e-01  -2.9504463989543550e-03 4.5810581129624829e-03 -1.2410775622070697e-01  -3.0452179752939556e-03 5.2747681457794918e-03 -1.4309500364320107e-01  -3.1162228163855695e-03 5.9858505585671197e-03 -1.6259576488471927e-01  -3.1660416557953317e-03 6.7090475622302711e-03 -1.8246619251419532e-01  -3.1977785995338814e-03 7.4397694993390360e-03 -2.0258069913923812e-01  -3.2150826581789191e-03 8.1742336484210993e-03 -2.2283542673637671e-01  -3.2221798793417912e-03 8.9095968673626232e-03 -2.4315183448503699e-01  -3.2239484948410630e-03 9.6440654832161184e-03 -2.6348054847756130e-01  0.0000000000000000e+00 0.0000000000000000e+00 0.0000000000000000e+00  -4.2648581435085085e-04 4.7221748599559688e-05 -1.3915209706934766e-03  -8.4486625438474189e-04 1.9775550138642219e-04 -5.3046985208648834e-03  -1.2255194467817765e-03 4.3787414138498119e-04 -1.1577128537751101e-02  -1.5738427689352956e-03 7.5757912906501224e-04 -2.0025078111112475e-02  -1.8898885719832051e-03 1.1485352435181909e-03 -3.0456709469551414e-02  -2.1735927392933681e-03 1.6032234411699471e-03 -4.2677904249159099e-02  -2.4250675175602758e-03 2.1144814068465817e-03 -5.6494268372863171e-02  -2.6446394154851704e-03 2.6753079131444685e-03 -7.1712576207155737e-02  -2.8328909173610623e-03 3.2788259077749494e-03 -8.8142237774818194e-02  -2.9907186194910928e-03 3.9183144929245111e-03 -1.0559705478712064e-01  -3.1193948650139612e-03 4.5872760795205338e-03 -1.2389734248186714e-01  -3.2206256064237753e-03 5.2795259496698126e-03 -1.4287241684144514e-01  -3.2966007486886608e-03 5.9892985506890834e-03 -1.6236341146135441e-01  -3.3500351197835320e-03 6.7113670710635138e-03 -1.8222637087004354e-01  -3.3841992407043797e-03 7.4411737709030503e-03 -2.0233555971566447e-01  -3.4029404214334135e-03 8.1749687804897071e-03 -2.2258692673094055e-01  -3.4107131415654530e-03 8.9099458555109024e-03 -2.4290168087384678e-01  -3.4127098424419724e-03 9.6443056685639513e-03 -2.6323009746661102e-01  0.0000000000000000e+00 0.0000000000000000e+00 0.0000000000000000e+00  -4.4325251605596266e-04 6.3327333248814949e-05 -1.3864955001183215e-03  -8.8197886188775361e-04 2.1743108413358608e-04 -5.2752890477046430e-03  -1.2839688589371199e-03 4.5795403701398438e-04 -1.1519934670674067e-02  -1.6522837081845341e-03 7.7661393821278188e-04 -1.9940152844410405e-02  -1.9866141272850469e-03 1.1659518387942449e-03 -3.0345513263420370e-02  -2.2868257353437457e-03 1.6188276847699848e-03 -4.2542506188179688e-02  -2.5530270320838723e-03 2.1282208856334144e-03 -5.6336991669536339e-02  -2.7855551512629517e-03 2.6871901861949352e-03 -7.1535842417704429e-02  -2.9850151089871068e-03 3.2888926124936919e-03 -8.7948493385982984e-02  -3.1523416909650659e-03 3.9266345618594566e-03 -1.0538872912959397e-01  -3.2888652003060749e-03 4.5939453678600813e-03 -1.2367681485091390e-01  -3.3963731941403616e-03 5.2846688660177056e-03 -1.4264198410942489e-01  -3.4771643611281374e-03 5.9930700488596538e-03 -1.6212525316000009e-01  -3.5340925529248651e-03 6.7139542871211119e-03 -1.8198251103286950e-01  -3.5705998785809799e-03 7.4427968042959543e-03 -2.0208782566886710e-01  -3.5907374790498823e-03 8.1758809554167405e-03 -2.2233690514182536e-01  -3.5991866506530296e-03 8.9104392858848098e-03 -2.4265066700174312e-01  -3.6014062740715135e-03 9.6447132206686700e-03 -2.6297899754074605e-01  0.0000000000000000e+00 0.0000000000000000e+00 0.0000000000000000e+00  -4.5932253245971799e-04 7.9905611752900115e-05 -1.3629469979000552e-03  -9.1951144599444550e-04 2.3777683412893030e-04 -5.2181192763646874e-03  -1.3431284828158017e-03 4.7908194216868228e-04 -1.1432903328110982e-02  -1.7315139124996824e-03 7.9683876444256233e-04 -1.9826487491846817e-02  -2.0841038735528467e-03 1.1845518624398691e-03 -3.0207824142346910e-02  -2.4007662676040838e-03 1.6355391806247149e-03 -4.2383264685090863e-02  -2.6816265546753741e-03 2.1429641440145353e-03 -5.6158645618182526e-02  -2.9270394354209426e-03 2.6999631410576661e-03 -7.1340821001658020e-02  -3.1376353572481349e-03 3.2997347770804073e-03 -8.7739189037701878e-02  -3.3143888804651718e-03 3.9356163983189042e-03 -1.0516747254106285e-01  -3.4586894158836531e-03 4.6011665896761034e-03 -1.2344584534916840e-01  -3.5724071786297825e-03 5.2902597109657857e-03 -1.4240341577993887e-01  -3.6579507263507184e-03 5.9971932726034733e-03 -1.6188103720479807e-01  -3.7183140991096926e-03 6.7168069246797265e-03 -1.8173439509704889e-01  -3.7571125209141191e-03 7.4446110172872448e-03 -2.0183731113486439e-01  -3.7786041988374110e-03 8.1769236338598995e-03 -2.2208520379616820e-01  -3.7877004882042611e-03 8.9110178611175334e-03 -2.4239865451632764e-01  -3.7901119552957020e-03 9.6452188319921736e-03 -2.6272713613228488e-01  0.0000000000000000e+00 0.0000000000000000e+00 0.0000000000000000e+00  -4.7319062074910892e-04 9.9209996664213702e-05 -1.3203486521544399e-03  -9.5586872500694859e-04 2.6013264776424111e-04 -5.1331806454957950e-03  -1.4016512958482845e-03 5.0194618318232735e-04 -1.1316196514410305e-02  -1.8103283007534861e-03 8.1864654674108624e-04 -1.9684120305466183e-02  -2.1812916018038469e-03 1.2046049899331506e-03 -3.0043586139872496e-02  -2.5144897932588796e-03 1.6535680085721688e-03 -4.2200082046846089e-02  -2.8100830826554416e-03 2.1588830214384716e-03 -5.5959118564038721e-02  -3.0684475851401978e-03 2.7137676348369050e-03 -7.1127398990650820e-02  -3.2902396923135866e-03 3.3114647655323511e-03 -8.7514216180636470e-02  -3.4764729980244001e-03 3.9453448505466227e-03 -1.0493318381495093e-01  -3.6285946981719380e-03 4.6089977527543338e-03 -1.2320434197432972e-01  -3.7485560878626613e-03 5.2963305112395213e-03 -1.4215663053529659e-01  -3.8388739296283344e-03 6.0016755281102124e-03 -1.6163069428726629e-01  -3.9026807910930391e-03 6.7199093705096746e-03 -1.8148196691701532e-01  -3.9437635754473992e-03 7.4465804886949313e-03 -2.0158397377180903e-01  -3.9665885705358877e-03 8.1780443916275921e-03 -2.2183179314590115e-01  -3.9763054294714136e-03 8.9116160109633906e-03 -2.4214562388553190e-01  -3.9788730679788898e-03 9.6457384172510090e-03 -2.6247450857404786e-01  0.0000000000000000e+00 0.0000000000000000e+00 0.0000000000000000e+00  -4.8377760368393928e-04 1.2399993011382807e-04 -1.2550218810612238e-03  -9.8934637832116855e-04 2.8631720648363473e-04 -5.0184845387308812e-03  -1.4576738666104471e-03 5.2776473712597854e-04 -1.1168973110878990e-02  -1.8868843324316149e-03 8.4292083957727938e-04 -1.9512574152071277e-02  -2.2764581215797474e-03 1.2268113146014410e-03 -2.9852448450877932e-02  -2.6264411759911043e-03 1.6734985064529267e-03 -4.1992670575010459e-02  -2.9370200207218186e-03 2.1764727920939027e-03 -5.5738169238599693e-02  -3.2085852460556142e-03 2.7290204393933034e-03 -7.0895377146105054e-02  -3.4418144467120663e-03 3.3244257288896433e-03 -8.7273416535620693e-02  -3.6377560823720903e-03 3.9560927474353927e-03 -1