<?xml version="1.0"?>
<VTKFile type="UnstructuredGrid"  version="0.1"  >
<UnstructuredGrid>
<Piece  NumberOfPoints="760" NumberOfCells="3024">
<Points>
<DataArray  type="Float64"  NumberOfComponents="3"  format="ascii">0 0 0  0.05555555555555555 0 0  0.1111111111111111 0 0  0.1666666666666667 0 0  0.2222222222222222 0 0  0.2777777777777778 0 0  0.3333333333333333 0 0  0.3888888888888889 0 0  0.4444444444444444 0 0  0.5 0 0  0.5555555555555556 0 0  0.6111111111111112 0 0  0.6666666666666666 0 0  0.7222222222222222 0 0  0.7777777777777778 0 0  0.8333333333333334 0 0  0.8888888888888888 0 0  0.9444444444444444 0 0  1 0 0  0 0.01428571428571429 0  0.05555555555555555 0.01428571428571429 0  0.1111111111111111 0.01428571428571429 0  0.1666666666666667 0.01428571428571429 0  0.2222222222222222 0.01428571428571429 0  0.2777777777777778 0.01428571428571429 0  0.3333333333333333 0.01428571428571429 0  0.3888888888888889 0.01428571428571429 0  0.4444444444444444 0.01428571428571429 0  0.5 0.01428571428571429 0  0.5555555555555556 0.01428571428571429 0  0.6111111111111112 0.01428571428571429 0  0.6666666666666666 0.01428571428571429 0  0.7222222222222222 0.01428571428571429 0  0.7777777777777778 0.01428571428571429 0  0.8333333333333334 0.01428571428571429 0  0.8888888888888888 0.01428571428571429 0  0.9444444444444444 0.01428571428571429 0  1 0.01428571428571429 0  0 0.02857142857142857 0  0.05555555555555555 0.02857142857142857 0  0.1111111111111111 0.02857142857142857 0  0.1666666666666667 0.02857142857142857 0  0.2222222222222222 0.02857142857142857 0  0.2777777777777778 0.02857142857142857 0  0.3333333333333333 0.02857142857142857 0  0.3888888888888889 0.02857142857142857 0  0.4444444444444444 0.02857142857142857 0  0.5 0.02857142857142857 0  0.5555555555555556 0.02857142857142857 0  0.6111111111111112 0.02857142857142857 0  0.6666666666666666 0.02857142857142857 0  0.7222222222222222 0.02857142857142857 0  0.7777777777777778 0.02857142857142857 0  0.8333333333333334 0.02857142857142857 0  0.8888888888888888 0.02857142857142857 0  0.9444444444444444 0.02857142857142857 0  1 0.02857142857142857 0  0 0.04285714285714286 0  0.05555555555555555 0.04285714285714286 0  0.1111111111111111 0.04285714285714286 0  0.1666666666666667 0.04285714285714286 0  0.2222222222222222 0.04285714285714286 0  0.2777777777777778 0.04285714285714286 0  0.3333333333333333 0.04285714285714286 0  0.3888888888888889 0.04285714285714286 0  0.4444444444444444 0.04285714285714286 0  0.5 0.04285714285714286 0  0.5555555555555556 0.04285714285714286 0  0.6111111111111112 0.04285714285714286 0  0.6666666666666666 0.04285714285714286 0  0.7222222222222222 0.04285714285714286 0  0.7777777777777778 0.04285714285714286 0  0.8333333333333334 0.04285714285714286 0  0.8888888888888888 0.04285714285714286 0  0.9444444444444444 0.04285714285714286 0  1 0.04285714285714286 0  0 0.05714285714285715 0  0.05555555555555555 0.05714285714285715 0  0.1111111111111111 0.05714285714285715 0  0.1666666666666667 0.05714285714285715 0  0.2222222222222222 0.05714285714285715 0  0.2777777777777778 0.05714285714285715 0  0.3333333333333333 0.05714285714285715 0  0.3888888888888889 0.05714285714285715 0  0.4444444444444444 0.05714285714285715 0  0.5 0.05714285714285715 0  0.5555555555555556 0.05714285714285715 0  0.6111111111111112 0.05714285714285715 0  0.6666666666666666 0.05714285714285715 0  0.7222222222222222 0.05714285714285715 0  0.7777777777777778 0.05714285714285715 0  0.8333333333333334 0.05714285714285715 0  0.8888888888888888 0.05714285714285715 0  0.9444444444444444 0.05714285714285715 0  1 0.05714285714285715 0  0 0.07142857142857142 0  0.05555555555555555 0.07142857142857142 0  0.1111111111111111 0.07142857142857142 0  0.1666666666666667 0.07142857142857142 0  0.2222222222222222 0.07142857142857142 0  0.2777777777777778 0.07142857142857142 0  0.3333333333333333 0.07142857142857142 0  0.3888888888888889 0.07142857142857142 0  0.4444444444444444 0.07142857142857142 0  0.5 0.07142857142857142 0  0.5555555555555556 0.07142857142857142 0  0.6111111111111112 0.07142857142857142 0  0.6666666666666666 0.07142857142857142 0  0.7222222222222222 0.07142857142857142 0  0.7777777777777778 0.07142857142857142 0  0.8333333333333334 0.07142857142857142 0  0.8888888888888888 0.07142857142857142 0  0.9444444444444444 0.07142857142857142 0  1 0.07142857142857142 0  0 0.08571428571428573 0  0.05555555555555555 0.08571428571428573 0  0.1111111111111111 0.08571428571428573 0  0.1666666666666667 0.08571428571428573 0  0.2222222222222222 0.08571428571428573 0  0.2777777777777778 0.08571428571428573 0  0.3333333333333333 0.08571428571428573 0  0.3888888888888889 0.08571428571428573 0  0.4444444444444444 0.08571428571428573 0  0.5 0.08571428571428573 0  0.5555555555555556 0.08571428571428573 0  0.6111111111111112 0.08571428571428573 0  0.6666666666666666 0.08571428571428573 0  0.7222222222222222 0.08571428571428573 0  0.7777777777777778 0.08571428571428573 0  0.8333333333333334 0.08571428571428573 0  0.8888888888888888 0.08571428571428573 0  0.9444444444444444 0.08571428571428573 0  1 0.08571428571428573 0  0 0.1 0  0.05555555555555555 0.1 0  0.1111111111111111 0.1 0  0.1666666666666667 0.1 0  0.2222222222222222 0.1 0  0.2777777777777778 0.1 0  0.3333333333333333 0.1 0  0.3888888888888889 0.1 0  0.4444444444444444 0.1 0  0.5 0.1 0  0.5555555555555556 0.1 0  0.6111111111111112 0.1 0  0.6666666666666666 0.1 0  0.7222222222222222 0.1 0  0.7777777777777778 0.1 0  0.8333333333333334 0.1 0  0.8888888888888888 0.1 0  0.9444444444444444 0.1 0  1 0.1 0  0 0 0.01  0.05555555555555555 0 0.01  0.1111111111111111 0 0.01  0.1666666666666667 0 0.01  0.2222222222222222 0 0.01  0.2777777777777778 0 0.01  0.3333333333333333 0 0.01  0.3888888888888889 0 0.01  0.4444444444444444 0 0.01  0.5 0 0.01  0.5555555555555556 0 0.01  0.6111111111111112 0 0.01  0.6666666666666666 0 0.01  0.7222222222222222 0 0.01  0.7777777777777778 0 0.01  0.8333333333333334 0 0.01  0.8888888888888888 0 0.01  0.9444444444444444 0 0.01  1 0 0.01  0 0.01428571428571429 0.01  0.05555555555555555 0.01428571428571429 0.01  0.1111111111111111 0.01428571428571429 0.01  0.1666666666666667 0.01428571428571429 0.01  0.2222222222222222 0.01428571428571429 0.01  0.2777777777777778 0.01428571428571429 0.01  0.3333333333333333 0.01428571428571429 0.01  0.3888888888888889 0.01428571428571429 0.01  0.4444444444444444 0.01428571428571429 0.01  0.5 0.01428571428571429 0.01  0.5555555555555556 0.01428571428571429 0.01  0.6111111111111112 0.01428571428571429 0.01  0.6666666666666666 0.01428571428571429 0.01  0.7222222222222222 0.01428571428571429 0.01  0.7777777777777778 0.01428571428571429 0.01  0.8333333333333334 0.01428571428571429 0.01  0.8888888888888888 0.01428571428571429 0.01  0.9444444444444444 0.01428571428571429 0.01  1 0.01428571428571429 0.01  0 0.02857142857142857 0.01  0.05555555555555555 0.02857142857142857 0.01  0.1111111111111111 0.02857142857142857 0.01  0.1666666666666667 0.02857142857142857 0.01  0.2222222222222222 0.02857142857142857 0.01  0.2777777777777778 0.02857142857142857 0.01  0.3333333333333333 0.02857142857142857 0.01  0.3888888888888889 0.02857142857142857 0.01  0.4444444444444444 0.02857142857142857 0.01  0.5 0.02857142857142857 0.01  0.5555555555555556 0.02857142857142857 0.01  0.6111111111111112 0.02857142857142857 0.01  0.6666666666666666 0.02857142857142857 0.01  0.7222222222222222 0.02857142857142857 0.01  0.7777777777777778 0.02857142857142857 0.01  0.8333333333333334 0.02857142857142857 0.01  0.8888888888888888 0.02857142857142857 0.01  0.9444444444444444 0.02857142857142857 0.01  1 0.02857142857142857 0.01  0 0.04285714285714286 0.01  0.05555555555555555 0.04285714285714286 0.01  0.1111111111111111 0.04285714285714286 0.01  0.1666666666666667 0.04285714285714286 0.01  0.2222222222222222 0.04285714285714286 0.01  0.2777777777777778 0.04285714285714286 0.01  0.3333333333333333 0.04285714285714286 0.01  0.3888888888888889 0.04285714285714286 0.01  0.4444444444444444 0.04285714285714286 0.01  0.5 0.04285714285714286 0.01  0.5555555555555556 0.04285714285714286 0.01  0.6111111111111112 0.04285714285714286 0.01  0.6666666666666666 0.04285714285714286 0.01  0.7222222222222222 0.04285714285714286 0.01  0.7777777777777778 0.04285714285714286 0.01  0.8333333333333334 0.04285714285714286 0.01  0.8888888888888888 0.04285714285714286 0.01  0.9444444444444444 0.04285714285714286 0.01  1 0.04285714285714286 0.01  0 0.05714285714285715 0.01  0.05555555555555555 0.05714285714285715 0.01  0.1111111111111111 0.05714285714285715 0.01  0.1666666666666667 0.05714285714285715 0.01  0.2222222222222222 0.05714285714285715 0.01  0.2777777777777778 0.05714285714285715 0.01  0.3333333333333333 0.05714285714285715 0.01  0.3888888888888889 0.05714285714285715 0.01  0.4444444444444444 0.05714285714285715 0.01  0.5 0.05714285714285715 0.01  0.5555555555555556 0.05714285714285715 0.01  0.6111111111111112 0.05714285714285715 0.01  0.6666666666666666 0.05714285714285715 0.01  0.7222222222222222 0.05714285714285715 0.01  0.7777777777777778 0.05714285714285715 0.01  0.8333333333333334 0.05714285714285715 0.01  0.8888888888888888 0.05714285714285715 0.01  0.9444444444444444 0.05714285714285715 0.01  1 0.05714285714285715 0.01  0 0.07142857142857142 0.01  0.05555555555555555 0.07142857142857142 0.01  0.1111111111111111 0.07142857142857142 0.01  0.1666666666666667 0.07142857142857142 0.01  0.2222222222222222 0.07142857142857142 0.01  0.2777777777777778 0.07142857142857142 0.01  0.3333333333333333 0.07142857142857142 0.01  0.3888888888888889 0.07142857142857142 0.01  0.4444444444444444 0.07142857142857142 0.01  0.5 0.07142857142857142 0.01  0.5555555555555556 0.07142857142857142 0.01  0.6111111111111112 0.07142857142857142 0.01  0.6666666666666666 0.07142857142857142 0.01  0.7222222222222222 0.07142857142857142 0.01  0.7777777777777778 0.07142857142857142 0.01  0.8333333333333334 0.07142857142857142 0.01  0.8888888888888888 0.07142857142857142 0.01  
[...]
<PointData  Vectors="f_33"> 
<DataArray  type="Float64"  Name="f_33"  NumberOfComponents="3" format="ascii">0.0000000000000000e+00 0.0000000000000000e+00 0.0000000000000000e+00  2.1324427233239611e-03 1.7395783101708281e-04 2.9642063506827038e-03  3.9988011223549948e-03 5.6054956017747099e-05 1.1403369661101500e-02  5.7180248143357546e-03 -1.3857373923934429e-04 2.4979043516799145e-02  7.2907230968774772e-03 -3.8016926604261423e-04 4.3248820708665849e-02  8.7176742637917505e-03 -6.5656076930180665e-04 6.5792206530276912e-02  9.9988805030651676e-03 -9.6158953759880998e-04 9.2193246917180560e-02  1.1134855531997570e-02 -1.2910077964798875e-03 1.2203814242070592e-01  1.2126936845461915e-02 -1.6411768752403668e-03 1.5491588739516959e-01  1.2977530821007589e-02 -2.0086220512492542e-03 1.9042033541624417e-01  1.3690404150990456e-02 -2.3898986789915588e-03 2.2815337464335744e-01  1.4271000270438790e-02 -2.7815839857785471e-03 2.6772913830920630e-01  1.4726754426561331e-02 -3.1803281140056236e-03 3.0877920551905508e-01  1.5067388027801366e-02 -3.5829390706544118e-03 3.5095872940977108e-01  1.5305167874060145e-02 -3.9864909880845357e-03 3.9395339890602565e-01  1.5455121060744011e-02 -4.3884512705132817e-03 4.3748711056322637e-01  1.5535212086497928e-02 -4.7868248369403324e-03 4.8133020830436724e-01  1.5566527440181962e-02 -5.1803042747156055e-03 5.2530820199042960e-01  1.5573294353099934e-02 -5.5685101454034788e-03 5.6931150184273904e-01  0.0000000000000000e+00 0.0000000000000000e+00 0.0000000000000000e+00  2.0177758668642586e-03 6.6784445536967958e-05 3.0522148763347762e-03  3.9096259346080931e-03 -4.0000335134319496e-05 1.1466404839381706e-02  5.6488806834728593e-03 -2.2641855256836618e-04 2.4980903187534688e-02  7.2407977383050250e-03 -4.5996770697163074e-04 4.3182480303504515e-02  8.6861127404618856e-03 -7.2834360745071614e-04 6.5658725501246074e-02  9.9848366804400745e-03 -1.0253901590449900e-03 9.1996407370196667e-02  1.1137454826796633e-02 -1.3468995517678590e-03 1.2178273998250000e-01  1.2145238853566193e-02 -1.6892893159362863e-03 1.5460714624087735e-01  1.3010501965099822e-02 -2.0491566242444494e-03 1.9006369167032552e-01  1.3736899741103412e-02 -2.4231457178997729e-03 2.2775438606994644e-01  1.4329753894886336e-02 -2.8079397867987197e-03 2.6729343263934707e-01  1.4796374087117935e-02 -3.2003109921025404e-03 3.0831243396930946e-01  1.5146359130217097e-02 -3.5972035216043242e-03 3.5046651230936365e-01  1.5391863152817211e-02 -3.9958391437604646e-03 3.9344125807342994e-01  1.5547816265172019e-02 -4.3938407920366207e-03 4.3696038497290962e-01  1.5632100608062478e-02 -4.7893721300306114e-03 4.8079394594186631e-01  1.5665741367210339e-02 -5.1812711337818236e-03 5.2476699683575467e-01  1.5673351919954455e-02 -5.5690032011042456e-03 5.6876914293328229e-01  0.0000000000000000e+00 0.0000000000000000e+00 0.0000000000000000e+00  1.9931093345007690e-03 -1.4768791906064225e-05 3.0858976735326097e-03  3.8861192562637688e-03 -1.3282447305973700e-04 1.1467221869438904e-02  5.6367866632315855e-03 -3.1676158643516788e-04 2.4922424366180768e-02  7.2415549271174651e-03 -5.4399112325997315e-04 4.3060429584249112e-02  8.6995857991363050e-03 -8.0472468542484399e-04 6.5474779644518200e-02  1.0010456813381292e-02 -1.0937039000275298e-03 9.1754493452931560e-02  1.1174492671662057e-02 -1.4070567626094646e-03 1.2148765894497913e-01  1.2192878891062398e-02 -1.7413585445649241e-03 1.5426405693043085e-01  1.3067863896358731e-02 -2.0933149901681170e-03 1.8967790625070138e-01  1.3803046836590440e-02 -2.4596731843090141e-03 2.2733127545488571e-01  1.4403699637158540e-02 -2.8372283433514699e-03 2.6683836561866725e-01  1.4877091193092043e-02 -3.2228783154268892e-03 3.0783072045481691e-01  1.5232792576141432e-02 -3.6137068001588675e-03 3.4996333933327228e-01  1.5482947590212879e-02 -4.0070867683504804e-03 3.9292161432899630e-01  1.5642496573225795e-02 -4.4007999448780078e-03 4.3642897203272885e-01  1.5729348923056757e-02 -4.7931708648875039e-03 4.8025507289607339e-01  1.5764558710794175e-02 -5.1831956581474348e-03 5.2422444394197942e-01  1.5772815075007496e-02 -5.5703564390774934e-03 5.6822590143469931e-01  0.0000000000000000e+00 0.0000000000000000e+00 0.0000000000000000e+00  1.9838743324490943e-03 -8.4204569946794955e-05 3.0746120894077945e-03  3.8779198229615306e-03 -2.2133988401709523e-04 1.1404070287133659e-02  5.6389715661814112e-03 -4.0739060531396978e-04 2.4798936675532283e-02  7.2555533021023940e-03 -6.2996069916764613e-04 4.2876925486470818e-02  8.7251099762098144e-03 -8.8356747252516356e-04 6.5234567983886452e-02  1.0046872078710401e-02 -1.1645477611806673e-03 9.1462046069437003e-02  1.1221051672225814e-02 -1.4696429642831459e-03 1.2114792927305905e-01  1.2248771107768773e-02 -1.7956913294180389e-03 1.5388218957627159e-01  1.3132230052333129e-02 -2.1395469152472087e-03 1.8925910174319141e-01  1.3874986785321983e-02 -2.4980751811210992e-03 2.2688071218433628e-01  1.4482280741688485e-02 -2.8681900831763201e-03 2.6636113679672918e-01  1.4961359700357240e-02 -3.2469188777095423e-03 3.0733176896900682e-01  1.5321788983085052e-02 -3.6314877242161502e-03 3.4944738409051757e-01  1.5575726177172658e-02 -4.0194237588490681e-03 3.9239306626349219e-01  1.5738148367978454e-02 -4.4086704529007767e-03 4.3589183992600189e-01  1.5827022417640481e-02 -4.7977157621173598e-03 4.7971285913383299e-01  1.5863456216579794e-02 -5.1857215197856181e-03 5.2368002088911725e-01  1.5872196208239417e-02 -5.5723429966592544e-03 5.6768127219534514e-01  0.0000000000000000e+00 0.0000000000000000e+00 0.0000000000000000e+00  1.9713427694785183e-03 -1.5068489347058213e-04 3.0219787129434645e-03  3.8710168873141585e-03 -3.0811605209884769e-04 1.1280021321187866e-02  5.6442779367225715e-03 -4.9813828027695927e-04 2.4610793926351075e-02  7.2732194214388743e-03 -7.1698880857323571e-04 4.2631294844939792e-02  8.7543285993690965e-03 -9.6381036866615441e-04 6.4937051217993397e-02  1.0086811691314557e-02 -1.2368609549962798e-03 9.1117940257960356e-02  1.1270889083597876e-02 -1.5336531812879947e-03 1.2076245447060557e-01  1.2307662940242270e-02 -1.8513554544108439e-03 1.5346052019525327e-01  1.3199300107702467e-02 -2.1869972779403187e-03 1.8880634266766991e-01  1.3949324425463027e-02 -2.5375734285478027e-03 2.2640185405551702e-01  1.4562946088466104e-02 -2.9001214164905186e-03 2.6586099732446400e-01  1.5047394293628459e-02 -3.2718006276157485e-03 3.0681492179819403e-01  1.5412231415792113e-02 -3.6499819179725665e-03 3.4891807626703647e-01  1.5669632369327748e-02 -4.0323490543554144e-03 3.9185512578411053e-01  1.5834616339427846e-02 -4.4170103473459878e-03 4.3534857570441332e-01  1.5925218744917993e-02 -4.8026205668734185e-03 4.7916695652269836e-01  1.5962620021687378e-02 -5.1885148146605066e-03 5.2313342627296178e-01  1.5971668497100307e-02 -5.5746404277328939e-03 5.6713501050842940e-01  0.0000000000000000e+00 0.0000000000000000e+00 0.0000000000000000e+00  1.9484368003225439e-03 -2.2193008202263915e-04 2.9261806479908728e-03  3.8585051831763147e-03 -3.9731575792292128e-04 1.1094750815792262e-02  5.6466010354676499e-03 -5.9053344081286068e-04 2.4357825061138282e-02  7.2890339143541188e-03 -8.0547477070031100e-04 4.2323157320840306e-02  8.7822736654356807e-03 -1.0454385175451013e-03 6.4581724769493101e-02  1.0125859517162000e-02 -1.3104791424415111e-03 9.0721640506745374e-02  1.1320137470441593e-02 -1.5988680122355798e-03 1.2033071684521623e-01  1.2366228142670719e-02 -1.9081093499108566e-03 1.5299857076191609e-01  1.3266276718318646e-02 -2.2354128348796311e-03 1.8831920001533450e-01  1.4023772951509587e-02 -2.5779053663969220e-03 2.2589432507371007e-01  1.4643893593853314e-02 -2.9327500313694266e-03 2.6533762584562642e-01  1.5133843095146067e-02 -3.2972403580360339e-03 3.0627991258109682e-01  1.5503173931682877e-02 -3.6688942929181166e-03 3.4837520388576548e-01  1.5764071240435877e-02 -4.0455553277040056e-03 3.9130763356500198e-01  1.5931589948880848e-02 -4.4255010761771905e-03 4.3479906897279441e-01  1.6023834223073217e-02 -4.8075590561475054e-03 4.7861729563973449e-01  1.6062072678945702e-02 -5.1912472241793317e-03 5.2258461881883267e-01  1.6071297954728635e-02 -5.5768942750323812e-03 5.6658710734598416e-01  0.0000000000000000e+00 0.0000000000000000e+00 0.0000000000000000e+00  1.9053593049282338e-03 -3.0455766714691405e-04 2.7784125193306315e-03  3.8291017901439938e-03 -4.9287385355549181e-04 1.0843454947526525e-02  5.6345206335023761e-03 -6.8648017629201750e-04 2.4037607794157992e-02  7.2920189243041809e-03 -8.9626951210714477e-04 4.1950900519314341e-02  8.7987603608182564e-03 -1.1288403021218318e-03 6.4167321301181038e-02  1.0154767424413652e-02 -1.3855891246925514e-03 9.0272089637886993e-02  1.1360538205329616e-02 -1.6653767607682081e-03 1.1985182853404777e-01  1.2417212727279201e-02 -1.9659838287752352e-03 1.5249560923704114e-01  1.3326906617387238e-02 -2.2847794330068598e-03 1.8779709187920121e-01  1.4093062259687155e-02 -2.6190158374776997e-03 2.2535768908740780e-01  1.4720805649466968e-02 -2.9659805087279448e-03 2.6479072641504808e-01  1.5217295986138768e-02 -3.3231024821060895e-03 3.0572657770270306e-01  1.5592052785610282e-02 -3.6880496295897732e-03 3.4781872477084280e-01  1.5857246354016800e-02 -4.0588291984139466e-03 3.9075065437093776e-01  1.6027940606705083e-02 -4.4338939850845542e-03 4.3424347214176906e-01  1.6122284835575155e-02 -4.8122529756529486e-03 4.7806408922148136e-01  1.6161636673993590e-02 -5.1936115587318350e-03 5.2203383457410890e-01  1.6171090953755893e-02 -5.5787567690113258e-03 5.6603779011357047e-01  0.0000000000000000e+00 0.0000000000000000e+00 0.0000000000000000e+00  1.8012464019002152e-03 -3.9317093374062684e-04 2.5744476559911829e-03  3.7369472085170426e-03 -5.8954906656816187e-04 1.0526705238361090e-02  5.5626641313338623e-03 -7.8079982285240654e-04 2.3653295639629212e-02  7.2391751383916614e-03 -9.8436183956764609e-04 4.1518445606733907e-02  8.7641219095600745e-03 -1.2093316467121137e-03 6.3697877399921471e-02  1.0137590150684229e-02 -1.4579329982951929e-03 8.9773184527290550e-02  1.1360011874514955e-02 -1.7293923510960576e-03 1.1932944971290479e-01  1.2432439566528834e-02 -2.0216756013507610e-03 1.5195502180232270e-01  1.3356891340537379e-02 -2.3322735720043971e-03 1.8724311539192973e-01  1.4136701544169784e-02 -2.6585466263447919e-03 2.2479474737854444e-01  1.4776879861994479e-02 -2.9978970216381321e-03 2.6422280095863848e-01  1.5284465611720437e-02 -3.3478825322919821e-03 3.0515711806764295e-01  1.5668860795243069e-02 -3.7063152075180656e-03 3.4725053888170870e-01  1.5942127046177035e-02 -4.0713608046830281e-03 3.9018578939297666e-01  1.6119235360033693e-02 -4.4416430034809017e-03 4.3368309219217255e-01  1.6218265563147045e-02 -4.8163543961695842e-03 4.7750835472452952e-01  1.6260592759512593e-02 -5.1953652557255262e-03 5.2148175849760026e-01  1.6271085744474011e-02 -5.5800114378215171e-03 5.6548737103313840e-01  0.0000000000000000e+00 0.0000000000000000e+00 0.0000000000000000e+00  1.0159937986184101e-03 9.5383806322760844e-05 2.8735960307981231e-03  1.9379393209615311e-03 -3.9187196545908612e-06 1.1318903477286551e-02  2.7832421761755819e-03 -1.5314640587752514e-04 2.4900762977614906e-02  3.5568528089314428e-03 -3.4526504597999670e-04 4.3177056486610604e-02  4.2592234539580000e-03 -5.7327678743304428e-04 6.5727085081207545e-02  4.8902072587473722e-03 -8.3270518759352089e-04 9.2134815032263354e-02  5.4499987447159306e-03 -1.1199387355136778e-03 1.2198639028296962e-01  5.9392502740809473e-03 -1.4316184902575598e-03 1.5487075610025683e-01  6.3591552969820058e-03 -1.7644188409419996e-03 1.9038171216411512e-01  6.7115715939660894e-03 -2.1149905131466291e-03 2.2812108147909610e-01  6.9991658572861890e-03 -2.4799750985747444e-03 2.6770291836609922e-01  7.2255615342740366e-03 -2.8560579377681665e-03 3.0875870886065149e-01  7.3954784549136315e-03 -3.2400466030405506e-03 3.5094349964693605e-01  7.5148565710261434e-03 -3.6289691673867816e-03 3.9394286129439193e-01  7.5909593771615541e-03 -4.0201889035276980e-03 4.3748056189892509e-01  7.6324596751105077e-03 -4.4115306034582602e-03 4.8132680742595796e-01  7.6495246691984141e-03 -4.8013915705832060e-03 5.2530695446839337e-01  7.6537033034713353e-03 -5.1888947974222249e-03 5.6931094730268228e-01  0.0000000000000000e+00 0.0000000000000000e+00 0.0000000000000000e+00  9.7776766133882164e-04 2.6694676639630240e-05 2.9533414262813899e-03  1.9271415874917391e-03 -6.0487956823264153e-05 1.1381884668132001e-02  2.7863869767371717e-03 -2.0506262129651789e-04 2.4903289974255366e-02  3.5729560799651330e-03 -3.9255922938927424e-04 4.3111538094638864e-02  4.2873004207791563e-03 -6.1592354127589335e-04 6.5594392719990458e-02  4.9293780693954554e-03 -8.7069896821008680e-04 9.1938671607460387e-02  5.4994113773269345e-03 -1.1533094722555449e-03 1.2173157267258684e-01  5.9980362988068022e-03 -1.4604331452532085e-03 1.5456248509467557e-01  6.4264098452328413e-03 -1.7887867917939628e-03 1.9002542741385334e-01  6.7863478486312676e-03 -2.1350718278711845e-03 2.2772234818891424e-01  7.0804783781631452e-03 -2.4959898166947003e-03 2.6726737458602606e-01  7.3123961397186469e-03 -2.8682951911968334e-03 3.0829201867279116e-01  7.4868077785410032e-03 -3.2488728767828337e-03 3.5045129870297426e-01  7.6096607350015439e-03 -3.6348352179371422e-03 3.9343068920272334e-01  7.6882504269215083e-03 -4.0236351000343699e-03 4.3695377811347597e-01  7.7313053550482755e-03 -4.4131909308158645e-03 4.8079048419829973e-01  7.7490793507098603e-03 -4.8019940256064670e-03 5.2476571264234262e-01  7.7535393554621157e-03 -5.1891119939169242e-03 5.6876871056650291e-01  0.0000000000000000e+00 0.0000000000000000e+00 0.0000000000000000e+00  9.6821570647765082e-04 -1.9143872625546332e-05 2.9850308253567843e-03  1.9247025461494194e-03 -1.1022178222115340e-04 1.1379926889219771e-02  2.7960179529465320e-03 -2.5300933216597962e-04 2.4843816900642132e-02  3.5942616407892802e-03 -4.3696465824299139e-04 4.2989096503328959e-02  4.3196738836020609e-03 -6.5623079960606446e-04 6.5410272179366513e-02  4.9720865262456691e-03 -9.0672766149093632e-04 9.1696663218607227e-02  5.5516682209298908e-03 -1.1850271625812908e-03 1.2143643133665305e-01  6.0590148669648399e-03 -1.4878805357582438e-03 1.5421935493322969e-01  6.4952455379810306e-03 -1.8120580800442100e-03 1.8963961703381277e-01  6.8621419743409113e-03 -2.1543137950962802e-03 2.2729922888146586e-01  7.1623058753915768e-03 -2.5114073684424443e-03 2.6681231667952598e-01  7.3993177019880067e-03 -2.8801587736404840e-03 3.0781033361181287e-01  7.5778865271389903e-03 -3.2575258315674619e-03 3.4994817447705256e-01  7.7039831998798273e-03 -3.6407000177844286e-03 3.9291111453917121e-01  7.7849504751374681e-03 -4.0272176720147603e-03 4.3642245347386677e-01  7.8295859654567701e-03 -4.4150835952702291e-03 4.8025171666533617e-01  7.8482290678617943e-03 -4.8028822283973146e-03 5.2422328054994738e-01  7.8530558806922217e-03 -5.1897079587380629e-03 5.6822563318540309e-01  0.0000000000000000e+00 0.0000000000000000e+00 0.0000000000000000e+00  9.6752831780822293e-04 -5.6612779325354270e-05 2.9725203271535488e-03  1.9295052089042793e-03 -1.5568659857332484e-04 1.1314944591851613e-02  2.8118135368059528e-03 -2.9908417899023829e-04 2.4719218705372047e-02  3.6211631929263625e-03 -4.8058359297959769e-04 4.2804945148747824e-02  4.3570859663175556e-03 -6.9618643293169408e-04 6.5169625898178637e-02  5.0192660497459848e-03 -9.4260195050438597e-04 9.1403881706027049e-02  5.6078283936718439e-03 -1.2167005713546836e-03 1.2109642428344029e-01  6.1233356602709297e-03 -1.5153602866153962e-03 1.5383725162255410e-01  6.5668754991953689e-03 -1.8354236026168896e-03 1.8922061350012973e-01  6.9402028693222309e-03 -2.1737033578764658e-03 2.2684850282926131e-01  7.2459015264527710e-03 -2.5270190105894032e-03 2.6633496163505127e-01  7.4875472201846602e-03 -2.8922559824478750e-03 3.0731129256773515e-01  7.6698619408584606e-03 -3.2664442396637371e-03 3.4943216564026069e-01  7.7988512061722293e-03 -3.6468533274148477e-03 3.9238254698777297e-01  7.8819174150790532e-03 -4.0311014367840937e-03 4.3588533276378805e-01  7.9279416153315678e-03 -4.4172770541459020e-03 4.7970954104769165e-01  7.9473565700655668e-03 -4.8040593726563757e-03 5.2367892019226114e-01  7.9524833901786964e-03 -5.1906608986963488e-03 5.6768110701769425e-01  0.0000000000000000e+00 0.0000000000000000e+00 0.0000000000000000e+00  9.6609534721162646e-04 -9.2224267191273586e-05 2.9201221127281608e-03  1.9356960574787535e-03 -1.9977207962221569e-04 1.1190106847398573e-02  2.8294260501969936e-03 -3.4485251494613156e-04 2.4530250441584970e-02  3.6500288131308257e-03 -5.2443376023232093e-04 4.2558701598130314e-02  4.3964068363953872e-03 -7.3659331373137596e-04 6.4871638617989127e-02  5.0682291712852391e-03 -9.7899740900724832e-04 9.1059385687147137e-02  5.6656212982633689e-03 -1.2489028828677683e-03 1.2071061117495316e-01  6.1891276612226053e-03 -1.5433507415504139e-03 1.5341528512239180e-01  6.6398104081141929e-03 -1.8592698949499993e-03 1.8876759517426756e-01  7.0194006712138756e-03 -2.1935375465648443e-03 2.2636942267183036e-01  7.3304662868463296e-03 -2.5430352418663454e-03 2.6583463733321727e-01  7.5765801919080262e-03 -2.9047150878619525e-03 3.0679429743412290e-01  7.7624793841187542e-03 -3.2756801798198899e-03 3.4890274560018020e-01  7.8942064986938770e-03 -3.6532791892043646e-03 3.9184452785192536e-01  7.9792271739647768e-03 -4.0352132918234718e-03 4.3534201998933070e-01  8.0265137683586552e-03 -4.4196550452645792e-03 4.7916361563199816e-01  8.0466025279579863e-03 -4.8053814135375437e-03 5.2313232723900038e-01  8.0519426057849147e-03 -5.1917985821256802e-03 5.6713487872629142e-01  0.0000000000000000e+00 0.0000000000000000e+00 0.0000000000000000e+00  9.5979006219006611e-04 -1.3085115721728891e-04 2.8267304599672487e-03  1.9391579079958297e-03 -2.4532078558272294e-04 1.1005449969895852e-02  2.8453807344193433e-03 -3.9176714601824925e-04 2.4277287681230494e-02  3.6776999789586732e-03 -5.6934999846503691e-04 4.2250471807962750e-02  4.4347849628330509e-03 -7.7802596380225741e-04 6.4516210576555516e-02  5.1164393691340987e-03 -1.0163627179826289e-03 9.0662982595120262e-02  5.7228282471639951e-03 -1.2820026991147784e-03 1.2027876652178031e-01  6.2544875248988991e-03 -1.5721558760752343e-03 1.5295322432705677e-01  6.7124556067521060e-03 -1.8838413109361879e-03 1.8828033779084585e-01  7.0984385192073389e-03 -2.2140026761739554e-03 2.2586177747230182e-01  7.4149854523778832e-03 -2.5595851417553081e-03 2.6531115046005627e-01  7.6656630766615006e-03 -2.9176090599645028e-03 3.0625917609090469e-01  7.8552195943535873e-03 -3.2852525027027902e-03 3.4835976675811325e-01  7.9897308566325882e-03 -3.6599455793099268e-03 3.9129693708024510e-01  8.0767223930979948e-03 -4.0394754841616663e-03 4.3479242454807893e-01  8.1252596060884304e-03 -4.4221016820509195e-03 4.7861387729104388e-01  8.1459936040401953e-03 -4.8067013444214584e-03 5.2258345895097902e-01  8.1514860225035280e-03 -5.1929316836720222e-03 5.6658693466776400e-01  0.0000000000000000e+00 0.0000000000000000e+00 0.0000000000000000e+00  9.4539861990314094e-04 -1.7831266526143117e-04 2.6844938928597406e-03  1.9354855330053424e-03 -2.9619656982667557e-04 1.0756802523581492e-02  2.8550522414593081e-03 -4.4240384436760238e-04 2.3958599011698192e-02  3.6996204677707000e-03 -6.1720171230180939e-04 4.1879292230457846e-02  4.4679379599192838e-03 -8.2196801033837801e-04 6.4102639855321705e-02  5.1599771984324411e-03 -1.0559395378243151e-03 9.0214096360020687e-02  5.7759272935217817e-03 -1.3170568264531445e-03 1.1980040455338439e-01  6.3163031394076309e-03 -1.6026699464183462e-03 1.5245066495712911e-01  6.7821108332619274e-03 -1.9098793324847025e-03 1.8775851724226955e-01  7.1750235915008049e-03 -2.2356935602217227e-03 2.2532532382497519e-01  7.4975636757304842e-03 -2.5771229395976413e-03 2.6476433874789512e-01  7.7532822291195812e-03 -2.9312592457705015e-03 3.0570584690474029e-01  7.9469284155470575e-03 -3.2953598350311899e-03 3.4780322615700154e-01  8.0846002274451139e-03 -3.666941