<?xml version="1.0"?>
<VTKFile type="UnstructuredGrid"  version="0.1"  >
<UnstructuredGrid>
<Piece  NumberOfPoints="760" NumberOfCells="3024">
<Points>
<DataArray  type="Float64"  NumberOfComponents="3"  format="ascii">0 0 0  0.05555555555555555 0 0  0.1111111111111111 0 0  0.1666666666666667 0 0  0.2222222222222222 0 0  0.2777777777777778 0 0  0.3333333333333333 0 0  0.3888888888888889 0 0  0.4444444444444444 0 0  0.5 0 0  0.5555555555555556 0 0  0.6111111111111112 0 0  0.6666666666666666 0 0  0.7222222222222222 0 0  0.7777777777777778 0 0  0.8333333333333334 0 0  0.8888888888888888 0 0  0.9444444444444444 0 0  1 0 0  0 0.01428571428571429 0  0.05555555555555555 0.01428571428571429 0  0.1111111111111111 0.01428571428571429 0  0.1666666666666667 0.01428571428571429 0  0.2222222222222222 0.01428571428571429 0  0.2777777777777778 0.01428571428571429 0  0.3333333333333333 0.01428571428571429 0  0.3888888888888889 0.01428571428571429 0  0.4444444444444444 0.01428571428571429 0  0.5 0.01428571428571429 0  0.5555555555555556 0.01428571428571429 0  0.6111111111111112 0.01428571428571429 0  0.6666666666666666 0.01428571428571429 0  0.7222222222222222 0.01428571428571429 0  0.7777777777777778 0.01428571428571429 0  0.8333333333333334 0.01428571428571429 0  0.8888888888888888 0.01428571428571429 0  0.9444444444444444 0.01428571428571429 0  1 0.01428571428571429 0  0 0.02857142857142857 0  0.05555555555555555 0.02857142857142857 0  0.1111111111111111 0.02857142857142857 0  0.1666666666666667 0.02857142857142857 0  0.2222222222222222 0.02857142857142857 0  0.2777777777777778 0.02857142857142857 0  0.3333333333333333 0.02857142857142857 0  0.3888888888888889 0.02857142857142857 0  0.4444444444444444 0.02857142857142857 0  0.5 0.02857142857142857 0  0.5555555555555556 0.02857142857142857 0  0.6111111111111112 0.02857142857142857 0  0.6666666666666666 0.02857142857142857 0  0.7222222222222222 0.02857142857142857 0  0.7777777777777778 0.02857142857142857 0  0.8333333333333334 0.02857142857142857 0  0.8888888888888888 0.02857142857142857 0  0.9444444444444444 0.02857142857142857 0  1 0.02857142857142857 0  0 0.04285714285714286 0  0.05555555555555555 0.04285714285714286 0  0.1111111111111111 0.04285714285714286 0  0.1666666666666667 0.04285714285714286 0  0.2222222222222222 0.04285714285714286 0  0.2777777777777778 0.04285714285714286 0  0.3333333333333333 0.04285714285714286 0  0.3888888888888889 0.04285714285714286 0  0.4444444444444444 0.04285714285714286 0  0.5 0.04285714285714286 0  0.5555555555555556 0.04285714285714286 0  0.6111111111111112 0.04285714285714286 0  0.6666666666666666 0.04285714285714286 0  0.7222222222222222 0.04285714285714286 0  0.7777777777777778 0.04285714285714286 0  0.8333333333333334 0.04285714285714286 0  0.8888888888888888 0.04285714285714286 0  0.9444444444444444 0.04285714285714286 0  1 0.04285714285714286 0  0 0.05714285714285715 0  0.05555555555555555 0.05714285714285715 0  0.1111111111111111 0.05714285714285715 0  0.1666666666666667 0.05714285714285715 0  0.2222222222222222 0.05714285714285715 0  0.2777777777777778 0.05714285714285715 0  0.3333333333333333 0.05714285714285715 0  0.3888888888888889 0.05714285714285715 0  0.4444444444444444 0.05714285714285715 0  0.5 0.05714285714285715 0  0.5555555555555556 0.05714285714285715 0  0.6111111111111112 0.05714285714285715 0  0.6666666666666666 0.05714285714285715 0  0.7222222222222222 0.05714285714285715 0  0.7777777777777778 0.05714285714285715 0  0.8333333333333334 0.05714285714285715 0  0.8888888888888888 0.05714285714285715 0  0.9444444444444444 0.05714285714285715 0  1 0.05714285714285715 0  0 0.07142857142857142 0  0.05555555555555555 0.07142857142857142 0  0.1111111111111111 0.07142857142857142 0  0.1666666666666667 0.07142857142857142 0  0.2222222222222222 0.07142857142857142 0  0.2777777777777778 0.07142857142857142 0  0.3333333333333333 0.07142857142857142 0  0.3888888888888889 0.07142857142857142 0  0.4444444444444444 0.07142857142857142 0  0.5 0.07142857142857142 0  0.5555555555555556 0.07142857142857142 0  0.6111111111111112 0.07142857142857142 0  0.6666666666666666 0.07142857142857142 0  0.7222222222222222 0.07142857142857142 0  0.7777777777777778 0.07142857142857142 0  0.8333333333333334 0.07142857142857142 0  0.8888888888888888 0.07142857142857142 0  0.9444444444444444 0.07142857142857142 0  1 0.07142857142857142 0  0 0.08571428571428573 0  0.05555555555555555 0.08571428571428573 0  0.1111111111111111 0.08571428571428573 0  0.1666666666666667 0.08571428571428573 0  0.2222222222222222 0.08571428571428573 0  0.2777777777777778 0.08571428571428573 0  0.3333333333333333 0.08571428571428573 0  0.3888888888888889 0.08571428571428573 0  0.4444444444444444 0.08571428571428573 0  0.5 0.08571428571428573 0  0.5555555555555556 0.08571428571428573 0  0.6111111111111112 0.08571428571428573 0  0.6666666666666666 0.08571428571428573 0  0.7222222222222222 0.08571428571428573 0  0.7777777777777778 0.08571428571428573 0  0.8333333333333334 0.08571428571428573 0  0.8888888888888888 0.08571428571428573 0  0.9444444444444444 0.08571428571428573 0  1 0.08571428571428573 0  0 0.1 0  0.05555555555555555 0.1 0  0.1111111111111111 0.1 0  0.1666666666666667 0.1 0  0.2222222222222222 0.1 0  0.2777777777777778 0.1 0  0.3333333333333333 0.1 0  0.3888888888888889 0.1 0  0.4444444444444444 0.1 0  0.5 0.1 0  0.5555555555555556 0.1 0  0.6111111111111112 0.1 0  0.6666666666666666 0.1 0  0.7222222222222222 0.1 0  0.7777777777777778 0.1 0  0.8333333333333334 0.1 0  0.8888888888888888 0.1 0  0.9444444444444444 0.1 0  1 0.1 0  0 0 0.01  0.05555555555555555 0 0.01  0.1111111111111111 0 0.01  0.1666666666666667 0 0.01  0.2222222222222222 0 0.01  0.2777777777777778 0 0.01  0.3333333333333333 0 0.01  0.3888888888888889 0 0.01  0.4444444444444444 0 0.01  0.5 0 0.01  0.5555555555555556 0 0.01  0.6111111111111112 0 0.01  0.6666666666666666 0 0.01  0.7222222222222222 0 0.01  0.7777777777777778 0 0.01  0.8333333333333334 0 0.01  0.8888888888888888 0 0.01  0.9444444444444444 0 0.01  1 0 0.01  0 0.01428571428571429 0.01  0.05555555555555555 0.01428571428571429 0.01  0.1111111111111111 0.01428571428571429 0.01  0.1666666666666667 0.01428571428571429 0.01  0.2222222222222222 0.01428571428571429 0.01  0.2777777777777778 0.01428571428571429 0.01  0.3333333333333333 0.01428571428571429 0.01  0.3888888888888889 0.01428571428571429 0.01  0.4444444444444444 0.01428571428571429 0.01  0.5 0.01428571428571429 0.01  0.5555555555555556 0.01428571428571429 0.01  0.6111111111111112 0.01428571428571429 0.01  0.6666666666666666 0.01428571428571429 0.01  0.7222222222222222 0.01428571428571429 0.01  0.7777777777777778 0.01428571428571429 0.01  0.8333333333333334 0.01428571428571429 0.01  0.8888888888888888 0.01428571428571429 0.01  0.9444444444444444 0.01428571428571429 0.01  1 0.01428571428571429 0.01  0 0.02857142857142857 0.01  0.05555555555555555 0.02857142857142857 0.01  0.1111111111111111 0.02857142857142857 0.01  0.1666666666666667 0.02857142857142857 0.01  0.2222222222222222 0.02857142857142857 0.01  0.2777777777777778 0.02857142857142857 0.01  0.3333333333333333 0.02857142857142857 0.01  0.3888888888888889 0.02857142857142857 0.01  0.4444444444444444 0.02857142857142857 0.01  0.5 0.02857142857142857 0.01  0.5555555555555556 0.02857142857142857 0.01  0.6111111111111112 0.02857142857142857 0.01  0.6666666666666666 0.02857142857142857 0.01  0.7222222222222222 0.02857142857142857 0.01  0.7777777777777778 0.02857142857142857 0.01  0.8333333333333334 0.02857142857142857 0.01  0.8888888888888888 0.02857142857142857 0.01  0.9444444444444444 0.02857142857142857 0.01  1 0.02857142857142857 0.01  0 0.04285714285714286 0.01  0.05555555555555555 0.04285714285714286 0.01  0.1111111111111111 0.04285714285714286 0.01  0.1666666666666667 0.04285714285714286 0.01  0.2222222222222222 0.04285714285714286 0.01  0.2777777777777778 0.04285714285714286 0.01  0.3333333333333333 0.04285714285714286 0.01  0.3888888888888889 0.04285714285714286 0.01  0.4444444444444444 0.04285714285714286 0.01  0.5 0.04285714285714286 0.01  0.5555555555555556 0.04285714285714286 0.01  0.6111111111111112 0.04285714285714286 0.01  0.6666666666666666 0.04285714285714286 0.01  0.7222222222222222 0.04285714285714286 0.01  0.7777777777777778 0.04285714285714286 0.01  0.8333333333333334 0.04285714285714286 0.01  0.8888888888888888 0.04285714285714286 0.01  0.9444444444444444 0.04285714285714286 0.01  1 0.04285714285714286 0.01  0 0.05714285714285715 0.01  0.05555555555555555 0.05714285714285715 0.01  0.1111111111111111 0.05714285714285715 0.01  0.1666666666666667 0.05714285714285715 0.01  0.2222222222222222 0.05714285714285715 0.01  0.2777777777777778 0.05714285714285715 0.01  0.3333333333333333 0.05714285714285715 0.01  0.3888888888888889 0.05714285714285715 0.01  0.4444444444444444 0.05714285714285715 0.01  0.5 0.05714285714285715 0.01  0.5555555555555556 0.05714285714285715 0.01  0.6111111111111112 0.05714285714285715 0.01  0.6666666666666666 0.05714285714285715 0.01  0.7222222222222222 0.05714285714285715 0.01  0.7777777777777778 0.05714285714285715 0.01  0.8333333333333334 0.05714285714285715 0.01  0.8888888888888888 0.05714285714285715 0.01  0.9444444444444444 0.05714285714285715 0.01  1 0.05714285714285715 0.01  0 0.07142857142857142 0.01  0.05555555555555555 0.07142857142857142 0.01  0.1111111111111111 0.07142857142857142 0.01  0.1666666666666667 0.07142857142857142 0.01  0.2222222222222222 0.07142857142857142 0.01  0.2777777777777778 0.07142857142857142 0.01  0.3333333333333333 0.07142857142857142 0.01  0.3888888888888889 0.07142857142857142 0.01  0.4444444444444444 0.07142857142857142 0.01  0.5 0.07142857142857142 0.01  0.5555555555555556 0.07142857142857142 0.01  0.6111111111111112 0.07142857142857142 0.01  0.6666666666666666 0.07142857142857142 0.01  0.7222222222222222 0.07142857142857142 0.01  0.7777777777777778 0.07142857142857142 0.01  0.8333333333333334 0.07142857142857142 0.01  0.8888888888888888 0.07142857142857142 0.01  
[...]
<PointData  Vectors="f_33"> 
<DataArray  type="Float64"  Name="f_33"  NumberOfComponents="3" format="ascii">0.0000000000000000e+00 0.0000000000000000e+00 0.0000000000000000e+00  -2.4802588203642613e-03 -1.2639942970307805e-04 -3.6241143139471316e-03  -4.6247575390495560e-03 2.1698889205497003e-04 -1.3898959747789239e-02  -6.5801355933129430e-03 7.7028873402319156e-04 -3.0351992258627343e-02  -8.3499702240571773e-03 1.4863590204106441e-03 -5.2393058574084467e-02  -9.9373257598945157e-03 2.3385395570441206e-03 -7.9463442838493187e-02  -1.1344684512139757e-02 3.3077539378638930e-03 -1.1101647925066142e-01  -1.2575711645101838e-02 4.3776943232217277e-03 -1.4651674562830080e-01  -1.3635526840869366e-02 5.5333423004246263e-03 -1.8544268695844365e-01  -1.4530787078883788e-02 6.7605326587241114e-03 -2.2729044743353502e-01  -1.5269773728968304e-02 8.0458869466498804e-03 -2.7157834095004868e-01  -1.5862482254096519e-02 9.3768842380304585e-03 -3.1785175017117023e-01  -1.6320702423824066e-02 1.0741985986273902e-02 -3.6568834200709827e-01  -1.6658084419815332e-02 1.2130784080873149e-02 -4.1470352468150512e-01  -1.6890190216364429e-02 1.3534160476478615e-02 -4.6455608895434541e-01  -1.7034532294151607e-02 1.4944454817261445e-02 -5.1495398634133904e-01  -1.7110613936261568e-02 1.6355638947639688e-02 -5.6566020781018855e-01  -1.7140015362141860e-02 1.7763487947633355e-02 -6.1649879443012534e-01  -1.7146304440275716e-02 1.9165880741884557e-02 -6.6736162850560565e-01  0.0000000000000000e+00 0.0000000000000000e+00 0.0000000000000000e+00  -2.3786050476218316e-03 -4.5555208985550328e-06 -3.7314675031160749e-03  -4.5852312119398966e-03 3.2480008973837616e-04 -1.3975219814195050e-02  -6.5945935065531572e-03 8.6777829209958599e-04 -3.0353067225470629e-02  -8.4145458300646202e-03 1.5739007340105091e-03 -5.2311128390473201e-02  -1.0047863367370813e-02 2.4163102666224633e-03 -7.9300618775168669e-02  -1.1497041805132812e-02 3.3759526389537326e-03 -1.1077819122665941e-01  -1.2765780950959886e-02 4.4365914936310702e-03 -1.4620960736704317e-01  -1.3859234135428554e-02 5.5832899846498269e-03 -1.8507373743008518e-01  -1.4784102757739115e-02 6.8019696878360960e-03 -2.2686684451812894e-01  -1.5548734662869396e-02 8.0793439529600365e-03 -2.7110721483874206e-01  -1.6163220512439309e-02 9.4029881848877554e-03 -3.1734011291855890e-01  -1.6639478144858666e-02 1.0761463901320668e-02 -3.6514301518215414e-01  -1.6991321656145551e-02 1.2144465885045691e-02 -4.1413107108340547e-01  -1.7234515084334125e-02 1.3542980780239817e-02 -4.6396274304600171e-01  -1.7386811977499198e-02 1.4949453465923629e-02 -5.1434558015076037e-01  -1.7467990225597887e-02 1.6357960191891747e-02 -5.6504208591039662e-01  -1.7499947818923011e-02 1.7764367067768357e-02 -6.1587569016253807e-01  -1.7507078128275448e-02 1.9166333178047383e-02 -6.6673736764058578e-01  0.0000000000000000e+00 0.0000000000000000e+00 0.0000000000000000e+00  -2.3821892533902808e-03 8.8796478244428822e-05 -3.7746593285061187e-03  -4.6218736660765336e-03 4.3090841296718603e-04 -1.3977647738228583e-02  -6.6742431855029939e-03 9.7045257298057934e-04 -3.0283193176570584e-02  -8.5361580227553985e-03 1.6684938903283309e-03 -5.2164372995343912e-02  -1.0208270021724045e-02 2.5013286565564292e-03 -7.9079764530212385e-02  -1.1692570124722858e-02 3.4510362039764115e-03 -1.1048873623088806e-01  -1.2992650238775810e-02 4.5018188046782306e-03 -1.4585804167376021e-01  -1.4113682624131992e-02 5.6389493627695148e-03 -1.8466687672122853e-01  -1.5062447025953878e-02 6.8484852945810979e-03 -2.2641154765104071e-01  -1.5847412186531299e-02 8.1172530917013423e-03 -2.7061024242001852e-01  -1.6478827837252193e-02 9.4329359243511355e-03 -3.1680803659405171e-01  -1.6968808536569020e-02 1.0784203350608651e-02 -3.6458214361919117e-01  -1.7331403537145816e-02 1.2160859897918106e-02 -4.1354737999665886e-01  -1.7582651517892341e-02 1.3554003289348969e-02 -4.6336180461233334e-01  -1.7740620127405914e-02 1.4956189152170011e-02 -5.1373248964435714e-01  -1.7825434540810883e-02 1.6361602388895634e-02 -5.6442138230858063e-01  -1.7859356585884816e-02 1.7766216520559690e-02 -6.1525125760725285e-01  -1.7867213649085719e-02 1.9167640226386173e-02 -6.6611222506630874e-01  0.0000000000000000e+00 0.0000000000000000e+00 0.0000000000000000e+00  -2.4027531169137301e-03 1.7005697502979049e-04 -3.7638443998121111e-03  -4.6757409887211486e-03 5.3421692022417790e-04 -1.3903626715993175e-02  -6.7699270694238228e-03 1.0756952221159940e-03 -3.0136199584389452e-02  -8.6724487900066653e-03 1.7674513007574736e-03 -5.1945440238637619e-02  -1.0381827807419496e-02 2.5910921687216223e-03 -7.8793571612848362e-02  -1.1899671910454735e-02 3.5307031563293879e-03 -1.1014132617396212e-01  -1.3229530196545087e-02 4.5712688714134204e-03 -1.4545594805899004e-01  -1.4376625798876009e-02 5.6984032727800723e-03 -1.8421673982529643e-01  -1.5347837836297937e-02 6.8983510004628733e-03 -2.2591992615261597e-01  -1.6151773743566869e-02 8.1580735511818919e-03 -2.7008350323288771e-01  -1.6798859424739347e-02 9.4653727976351659e-03 -3.1625227344399248e-01  -1.7301423359826699e-02 1.0809033300699067e-02 -3.6400310472541691e-01  -1.7673767449284446e-02 1.2178974925287292e-02 -4.1295039747537970e-01  -1.7932222835708406e-02 1.3566411625176871e-02 -4.6275172307575629e-01  -1.8095190015013411e-02 1.4964014529256577e-02 -5.1311359335337492e-01  -1.8183162263872451e-02 1.6366081036929648e-02 -5.6379732022050022e-01  -1.8218774169656605e-02 1.7768700932776875e-02 -6.1462495641790171e-01  -1.8227233418722278e-02 1.9169599720674963e-02 -6.6548569714968420e-01  0.0000000000000000e+00 0.0000000000000000e+00 0.0000000000000000e+00  -2.4187406629830755e-03 2.5022258676313724e-04 -3.7032728358767004e-03  -4.7308176883836487e-03 6.3786140265887140e-04 -1.3756766859381400e-02  -6.8691676239557107e-03 1.1832764157798993e-03 -2.9912420914255448e-02  -8.8129497233070189e-03 1.8696545915471857e-03 -5.1653423998526439e-02  -1.0559591440881899e-02 2.6842797047008610e-03 -7.8440707040610791e-02  -1.2110736968614574e-02 3.6136444620733948e-03 -1.0973454206394868e-01  -1.3470043221693481e-02 4.6437126119459717e-03 -1.4500195992348028e-01  -1.4642838756118067e-02 5.7605237696509957e-03 -1.8372206537550784e-01  -1.5636123798545280e-02 6.9505454624057723e-03 -2.2539084216887953e-01  -1.6458654428784244e-02 8.2008900527772381e-03 -2.6952598713608988e-01  -1.7121038328909689e-02 9.4994863032596306e-03 -3.1567193913499070e-01  -1.7635821983827425e-02 1.0835239107830080e-02 -3.6340513498052901e-01  -1.8017563582874215e-02 1.2198188030796399e-02 -4.1233947380628461e-01  -1.8282890383621832e-02 1.3579667454866235e-02 -4.6213195377799032e-01  -1.8450540329113103e-02 1.4972468433032094e-02 -5.1248844084522449e-01  -1.8541384133272103e-02 1.6371004751329934e-02 -5.6316952927814889e-01  -1.8578443849196345e-02 1.7771489367596711e-02 -6.1399647469263863e-01  -1.8587338590007385e-02 1.9171898958125093e-02 -6.6485753505688405e-01  0.0000000000000000e+00 0.0000000000000000e+00 0.0000000000000000e+00  -2.4224107879717975e-03 3.3866095115426496e-04 -3.5906929081818079e-03  -4.7794969984010314e-03 7.4691320662783960e-04 -1.3536599012170324e-02  -6.9653015209388278e-03 1.2950439569787166e-03 -2.9611614396674674e-02  -8.9517426869284225e-03 1.9755534860576036e-03 -5.1287837670210147e-02  -1.0736340244122417e-02 2.7808287621836963e-03 -7.8020543817714283e-02  -1.2321227748979433e-02 3.6996122591268672e-03 -1.0926772980530813e-01  -1.3710313690430185e-02 4.7188343439169061e-03 -1.4449545423084459e-01  -1.4909079555903721e-02 5.8249702516185780e-03 -1.8318228649898738e-01  -1.5924662204679661e-02 7.0047190025641871e-03 -2.2482379455920570e-01  -1.6765969813722324e-02 8.2453497619767637e-03 -2.6893726151079034e-01  -1.7443790518316259e-02 9.5349227314683958e-03 -3.1506666930518523e-01  -1.7970885630497747e-02 1.0862467171886665e-02 -3.6278793642710638e-01  -1.8362065787030923e-02 1.2218146297124800e-02 -4.1171437450972442e-01  -1.8634250344098630e-02 1.3593419105355145e-02 -4.6150232173537675e-01  -1.8806511119333146e-02 1.4981201605547900e-02 -5.1185691091864061e-01  -1.8900098972015750e-02 1.6376029574563061e-02 -5.6253793264375962e-01  -1.8938444962994443e-02 1.7774246048324973e-02 -6.1336576706102763e-01  -1.8947626910488066e-02 1.9174179900698928e-02 -6.6422772760629889e-01  0.0000000000000000e+00 0.0000000000000000e+00 0.0000000000000000e+00  -2.4027625596395302e-03 4.4351601516928567e-04 -3.4153294995440857e-03  -4.8089562845906649e-03 8.6617931400749450e-04 -1.3237184188459242e-02  -7.0453522388752750e-03 1.4133211250535605e-03 -2.9230800914368922e-02  -9.0764649823226549e-03 2.0861675093252741e-03 -5.0846726481717210e-02  -1.0900754549101058e-02 2.8811797194420140e-03 -7.7531576117258874e-02  -1.2521023311672166e-02 3.7887897475598572e-03 -1.0873966289611166e-01  -1.3941457778721300e-02 4.7966900135451782e-03 -1.4393542758150557e-01  -1.5167689731321144e-02 5.8917225909251641e-03 -1.8259659916307594e-01  -1.6206982393961948e-02 7.0607960235474941e-03 -2.2421816408549705e-01  -1.7068382228034775e-02 8.2913307257963358e-03 -2.6831687909300700e-01  -1.7762842030566568e-02 9.5715188294313268e-03 -3.1443617506062282e-01  -1.8303321034382879e-02 1.0890516802236624e-02 -3.6215136321716823e-01  -1.8704864772795336e-02 1.2238615357115184e-02 -4.1107507933820303e-01  -1.8984666762585898e-02 1.3607402599414465e-02 -4.6086291244763361e-01  -1.9162114279773702e-02 1.4989925197831376e-02 -5.1121917175863851e-01  -1.9258823965452122e-02 1.6380848876143595e-02 -5.6190275212976004e-01  -1.9298653831584103e-02 1.7776648085605119e-02 -6.1273307367314445e-01  -1.9308132850123269e-02 1.9176079799660298e-02 -6.6359650380627266e-01  0.0000000000000000e+00 0.0000000000000000e+00 0.0000000000000000e+00  -2.3117999346425160e-03 5.5835658615816788e-04 -3.1719888476584909e-03  -4.7652324730336863e-03 9.8945489713065933e-04 -1.2858822280421114e-02  -7.0563018103037747e-03 1.5320491601929296e-03 -2.8773443667946666e-02  -9.1373582430330728e-03 2.1956823896581031e-03 -5.0334509405313838e-02  -1.1007472926408995e-02 2.9799435776143674e-03 -7.6978377523719513e-02  -1.2669565035147861e-02 3.8763244344547335e-03 -1.0815475388452035e-01  -1.4127805098306580e-02 4.8730074323088575e-03 -1.4332600923553948e-01  -1.5387824953448348e-02 5.9570931315893021e-03 -1.8196880126198431e-01  -1.6456920341995460e-02 7.1156567665853036e-03 -2.2357739828586085e-01  -1.7344201267778424e-02 8.3362522654170500e-03 -2.6766793024669255e-01  -1.8060715663184349e-02 9.6071954884686759e-03 -3.1378318875210487e-01  -1.8619551509496807e-02 1.0917765504967640e-02 -3.6149779267996907e-01  -1.9035918922377867e-02 1.2258377277605545e-02 -4.1042361676039035e-01  -1.9327213848586242e-02 1.3620745397406993e-02 -4.6021541468041827e-01  -1.9513066022576117e-02 1.4998045496089144e-02 -5.1057658446072407e-01  -1.9615378504435871e-02 1.6385077954208481e-02 -5.6126503405402461e-01  -1.9658405088572278e-02 1.7778432299142076e-02 -6.1209909150948727e-01  -1.9668912374652885e-02 1.9177359772145540e-02 -6.6296417924540951e-01  0.0000000000000000e+00 0.0000000000000000e+00 0.0000000000000000e+00  -1.1225802510491305e-03 -3.0597580713134147e-05 -3.5193469936832234e-03  -2.1264404921601992e-03 2.8905707651369952e-04 -1.3802163021883621e-02  -3.0366725586311867e-03 7.8648115266617246e-04 -3.0263110664002293e-02  -3.8611778694626754e-03 1.4422419107857965e-03 -5.2312399646588417e-02  -4.6015913673610248e-03 2.2360473840118099e-03 -7.9391071238461272e-02  -5.2588229541420204e-03 3.1508761345457347e-03 -1.1095233875363950e-01  -5.8344126567467462e-03 4.1711634720626002e-03 -1.4646068468876813e-01  -6.3306383127735393e-03 5.2821659582281758e-03 -1.8539447428822556e-01  -6.7505146135064800e-03 6.4698022589500586e-03 -2.2724977642157512e-01  -7.0978149519811259e-03 7.7206842126319739e-03 -2.7154482842732036e-01  -7.3771063096319395e-03 9.0222216008459186e-03 -3.1782493334248763e-01  -7.5937843801309138e-03 1.0362757613948500e-02 -3.6566767519298488e-01  -7.7541037627389441e-03 1.1731718884018381e-02 -4.1468837644363354e-01  -7.8652018436824855e-03 1.3119773757868618e-02 -4.6454573973018248e-01  -7.9351172364707442e-03 1.4518996372635940e-02 -5.1494762647533920e-01  -7.9728094328831729e-03 1.5923032700958236e-02 -5.6565693462551458e-01  -7.9881955966057301e-03 1.7327242952004798e-02 -6.1649760228523665e-01  -7.9919597108123134e-03 1.8728928277467572e-02 -6.6736110319959596e-01  0.0000000000000000e+00 0.0000000000000000e+00 0.0000000000000000e+00  -1.1125994720830559e-03 4.4444284660815790e-05 -3.6157045345672685e-03  -2.1798452114743998e-03 3.4964938190876297e-04 -1.3877192178558964e-02  -3.1360016224030460e-03 8.4148035677684789e-04 -3.0263903261663221e-02  -4.0024074036030680e-03 1.4917933086943016e-03 -5.2230473933821589e-02  -4.7805052169669453e-03 2.2801956292852325e-03 -7.9228315332075902e-02  -5.4713702132485210e-03 3.1896966403361210e-03 -1.1071411184137724e-01  -6.0766734970263830e-03 4.2047867360379444e-03 -1.4615357770764650e-01  -6.5988054443349969e-03 5.3107743781833942e-03 -1.8502552093870514e-01  -7.0409015707294034e-03 6.4936287776474278e-03 -2.2682613628136725e-01  -7.4068802507639229e-03 7.7400134098714619e-03 -2.7107363644853122e-01  -7.7014853197801738e-03 9.0373916205317654e-03 -3.1731320793366757e-01  -7.9303252263391213e-03 1.0374162078422186e-02 -3.6512224531096610e-01  -8.0999057104617165e-03 1.1739808481722338e-02 -4.1411581309618295e-01  -8.2176554206731620e-03 1.3125057389363331e-02 -4.6395228635042640e-01  -8.2919448713720829e-03 1.4522041968938136e-02 -5.1433912497868972e-01  -8.3321028150009045e-03 1.5924468616291421e-02 -5.6503874129489040e-01  -8.3484643277847350e-03 1.7327758383623073e-02 -6.1587446175134353e-01  -8.3525255014228784e-03 1.8729113681271743e-02 -6.6673695747353035e-01  0.0000000000000000e+00 0.0000000000000000e+00 0.0000000000000000e+00  -1.1340501286766370e-03 9.4884877926850692e-05 -3.6546159075362050e-03  -2.2416794364710103e-03 4.0437943298486792e-04 -1.3874631892451613e-02  -3.2414453871199337e-03 8.9402701995847426e-04 -3.0191347530036976e-02  -4.1481840111747608e-03 1.5400245720865286e-03 -5.2081932617163318e-02  -4.9628864275248485e-03 2.3234885447692599e-03 -7.9006095727759879e-02  -5.6865152279244125e-03 3.2279093734270186e-03 -1.1042354125819726e-01  -6.3207748463093381e-03 4.2379723761531117e-03 -1.4580108349734644e-01  -6.8681386210553193e-03 5.3390831458568887e-03 -1.8461789273719853e-01  -7.3318579031026966e-03 6.5172766416295713e-03 -2.2637021902751353e-01  -7.7160003623502997e-03 7.7592726833447681e-03 -2.7057618027617947e-01  -8.0254946017346285e-03 9.0525889910380089e-03 -3.1678077427193052e-01  -8.2661710984634623e-03 1.0385679034047947e-02 -3.6456113165078763e-01  -8.4447964356837383e-03 1.1748082303504678e-02 -4.1353198252506551e-01  -8.5691001773651812e-03 1.3130581919907484e-02 -4.6335129673281178e-01  -8.6477939644727508e-03 1.4525367699062149e-02 -5.1372605548171490e-01  -8.6905833084791849e-03 1.5926203420938853e-02 -5.6441811336916614e-01  -8.7082093624848648e-03 1.7328575516851095e-02 -6.1525014166679415e-01  -8.7127203615527879e-03 1.8729670122634261e-02 -6.6611197661857613e-01  0.0000000000000000e+00 0.0000000000000000e+00 0.0000000000000000e+00  -1.1645289800789758e-03 1.3771372758971501e-04 -3.6404495298285543e-03  -2.3111742794149123e-03 4.5622905828930903e-04 -1.3796753957615624e-02  -3.3533776674764633e-03 9.4643033005041544e-04 -3.0041526519404987e-02  -4.2997309986989116e-03 1.5892450112480311e-03 -5.1860897095221584e-02  -5.1503407028470035e-03 2.3680928991382188e-03 -7.8718218494447337e-02  -5.9060409025897464e-03 3.2674656867823565e-03 -1.1007472337046129e-01  -6.5685846961805175e-03 4.2724313218330950e-03 -1.4539779854721485e-01  -7.1405379418505600e-03 5.3685597585759063e-03 -1.8416675409509309e-01  -7.6252757387464841e-03 6.5419764032392316e-03 -2.2587777014261012e-01  -8.0270226329210975e-03 7.7794671951528574e-03 -2.7004877610111999e-01  -8.3508996342104239e-03 9.0686085930636439e-03 -3.1622449661772239e-01  -8.6029670193690476e-03 1.0397911247954294e-02 -3.6398171561387649e-01  -8.7902600875750699e-03 1.1756972103139585e-02 -4.1293474538332198e-01  -8.9208172622849118e-03 1.3136632177099490e-02 -4.6274106631794376e-01  -9.0036997614205850e-03 1.4529138713524398e-02 -5.1310709723513270e-01  -9.0489995305720900e-03 1.5928312336044033e-02 -5.6379405602096411e-01  -9.0678613028997244e-03 1.7329708525135615e-02 -6.1462389383287497e-01  -9.0727926933782937e-03 1.8730597224756194e-02 -6.6548555130864329e-01  0.0000000000000000e+00 0.0000000000000000e+00 0.0000000000000000e+00  -1.1934650250587083e-03 1.8072056825966092e-04 -3.5783121974046548e-03  -2.3819369498248801e-03 5.0878124791249037e-04 -1.3647284135166693e-02  -3.4672529183201409e-03 1.0005973618962729e-03 -2.9815257122003055e-02  -4.4534038014097466e-03 1.6406623287492067e-03 -5.1566809712336195e-02  -5.3398385778372697e-03 2.4149406522460015e-03 -7.8363614975446971e-02  -6.1274462665145560e-03 3.3091326889456867e-03 -1.0966645224468020e-01  -6.8180837942532109e-03 4.3087997710387392e-03 -1.4494253443808963e-01  -7.4144284698841557e-03 5.3997226594449865e-03 -1.8367099385814334e-01  -7.9199871115069771e-03 6.5681366234960322e-03 -2.2534777721515181e-01  -8.3391453660046008e-03 7.8009025575067571e-03 -2.6949051643654087e-01  -8.6772194506501490e-03 9.0856604967085846e-03 -3.1564357219931671e-01  -8.9405017306713273e-03 1.0410981648222725e-02 -3.6338329590197388e-01  -9.1362983541512979e-03 1.1766523287449362e-02 -4.1232349678311714e-01  -9.2729587440008691e-03 1.3143187091358231e-02 -4.6212108006517361e-01  -9.3598965599022213e-03 1.4533280362098710e-02 -5.1248181663249870e-01  -9.4075968492780652e-03 1.5930681867687240e-02 -5.6316620514421023e-01  -9.4276152525573313e-03 1.7331018992062415e-02 -6.1399540277669806e-01  -9.4328906262990987e-03 1.8731733698362882e-02 -6.6485742205686615e-01  0.0000000000000000e+00 0.0000000000000000e+00 0.0000000000000000e+00  -1.2166624954072743e-03 2.2982411004106952e-04 -3.4668164567600731e-03  -2.4496592700363781e-03 5.6552112745153927e-04 -1.3426205035479914e-02  -3.5794818992241685e-03 1.0583000829773939e-03 -2.9512959985342615e-02  -4.6060125595501541e-03 1.6952711016031841e-03 -5.1199767992883276e-02  -5.5285735808787489e-03 2.4646968405524750e-03 -7.7942138051262516e-02  -6.3483079630210432e-03 3.3534136591995569e-03 -1.0919847423385950e-01  -7.0672237347194806e-03 4.3474774056806017e-03 -1.4443500403102097e-01  -7.6881209754244145e-03 5.4328895140437960e-03 -1.8313032450227454e-01  -8.2146409789800989e-03 6.5960021657643442e-03 -2.2477996704915931e-01  -8.6513302389008440e-03 7.8237560252339342e-03 -2.6890114951874267e-01  -9.0036986276391968e-03 9.1038585125696944e-03 -3.1503777478022221e-01  -9.2782684998535692e-03 1.0424944856212525e-02 -3.6276567471323395e-01  -9.4826145474534163e-03 1.1776736080286647e-02 -4.1169806973026374e-01  -9.6253948369026364e-03 1.3150198076270323e-02 -4.6149120370008884e-01  -9.7163735519560004e-03 1.4537702147735110e-02 -5.1185011291088478e-01  -9.7664320922979889e-03 1.5933188380390043e-02 -5.6253449062931848e-01  -9.7875535789357909e-03 1.7332356986707931e-02 -6.1336462149164750e-01  -9.7930977209395795e-03 1.8732889368720616e-02 -6.6422757166183422e-01  0.0000000000000000e+00 0.0000000000000000e+00 0.0000000000000000e+00  -1.2309907084022684e-03 2.9220952206777175e-04 -3.2963519838497203e-03  -2.5096789814419342e-03 6.3116188983084961e-04 -1.3128365122125542e-02  -3.6850721482871622e-03 1.1226572860361659e-03 -2.9132495429946555e-02  -4.7526674274841404e-03 1.7552996277991775e-03 -5.0758594236804656e-02  -5.7120163777028225e-03 2.5190964373473816e-03 -7.7452948940825869e-02  -6.5645569851115757e-03 3.4017309036682964e-03 -1.0867012106133402e-01  -7.3124258106388590e-03 4.3896483421383579e-03 -1.4387466243317004e-01  -7.9585279760005442e-03 5.4690389552649555e-03 -1.8254430917401651e-01  -8.5066281682289122e-03 6.6263641006857159e-03 -2.2417400409504729e-01  -8.9614251670652907e-03 7.8486446154138259e-03 