<?xml version="1.0"?>
<VTKFile type="UnstructuredGrid"  version="0.1"  >
<UnstructuredGrid>
<Piece  NumberOfPoints="760" NumberOfCells="3024">
<Points>
<DataArray  type="Float64"  NumberOfComponents="3"  format="ascii">0 0 0  0.05555555555555555 0 0  0.1111111111111111 0 0  0.1666666666666667 0 0  0.2222222222222222 0 0  0.2777777777777778 0 0  0.3333333333333333 0 0  0.3888888888888889 0 0  0.4444444444444444 0 0  0.5 0 0  0.5555555555555556 0 0  0.6111111111111112 0 0  0.6666666666666666 0 0  0.7222222222222222 0 0  0.7777777777777778 0 0  0.8333333333333334 0 0  0.8888888888888888 0 0  0.9444444444444444 0 0  1 0 0  0 0.01428571428571429 0  0.05555555555555555 0.01428571428571429 0  0.1111111111111111 0.01428571428571429 0  0.1666666666666667 0.01428571428571429 0  0.2222222222222222 0.01428571428571429 0  0.2777777777777778 0.01428571428571429 0  0.3333333333333333 0.01428571428571429 0  0.3888888888888889 0.01428571428571429 0  0.4444444444444444 0.01428571428571429 0  0.5 0.01428571428571429 0  0.5555555555555556 0.01428571428571429 0  0.6111111111111112 0.01428571428571429 0  0.6666666666666666 0.01428571428571429 0  0.7222222222222222 0.01428571428571429 0  0.7777777777777778 0.01428571428571429 0  0.8333333333333334 0.01428571428571429 0  0.8888888888888888 0.01428571428571429 0  0.9444444444444444 0.01428571428571429 0  1 0.01428571428571429 0  0 0.02857142857142857 0  0.05555555555555555 0.02857142857142857 0  0.1111111111111111 0.02857142857142857 0  0.1666666666666667 0.02857142857142857 0  0.2222222222222222 0.02857142857142857 0  0.2777777777777778 0.02857142857142857 0  0.3333333333333333 0.02857142857142857 0  0.3888888888888889 0.02857142857142857 0  0.4444444444444444 0.02857142857142857 0  0.5 0.02857142857142857 0  0.5555555555555556 0.02857142857142857 0  0.6111111111111112 0.02857142857142857 0  0.6666666666666666 0.02857142857142857 0  0.7222222222222222 0.02857142857142857 0  0.7777777777777778 0.02857142857142857 0  0.8333333333333334 0.02857142857142857 0  0.8888888888888888 0.02857142857142857 0  0.9444444444444444 0.02857142857142857 0  1 0.02857142857142857 0  0 0.04285714285714286 0  0.05555555555555555 0.04285714285714286 0  0.1111111111111111 0.04285714285714286 0  0.1666666666666667 0.04285714285714286 0  0.2222222222222222 0.04285714285714286 0  0.2777777777777778 0.04285714285714286 0  0.3333333333333333 0.04285714285714286 0  0.3888888888888889 0.04285714285714286 0  0.4444444444444444 0.04285714285714286 0  0.5 0.04285714285714286 0  0.5555555555555556 0.04285714285714286 0  0.6111111111111112 0.04285714285714286 0  0.6666666666666666 0.04285714285714286 0  0.7222222222222222 0.04285714285714286 0  0.7777777777777778 0.04285714285714286 0  0.8333333333333334 0.04285714285714286 0  0.8888888888888888 0.04285714285714286 0  0.9444444444444444 0.04285714285714286 0  1 0.04285714285714286 0  0 0.05714285714285715 0  0.05555555555555555 0.05714285714285715 0  0.1111111111111111 0.05714285714285715 0  0.1666666666666667 0.05714285714285715 0  0.2222222222222222 0.05714285714285715 0  0.2777777777777778 0.05714285714285715 0  0.3333333333333333 0.05714285714285715 0  0.3888888888888889 0.05714285714285715 0  0.4444444444444444 0.05714285714285715 0  0.5 0.05714285714285715 0  0.5555555555555556 0.05714285714285715 0  0.6111111111111112 0.05714285714285715 0  0.6666666666666666 0.05714285714285715 0  0.7222222222222222 0.05714285714285715 0  0.7777777777777778 0.05714285714285715 0  0.8333333333333334 0.05714285714285715 0  0.8888888888888888 0.05714285714285715 0  0.9444444444444444 0.05714285714285715 0  1 0.05714285714285715 0  0 0.07142857142857142 0  0.05555555555555555 0.07142857142857142 0  0.1111111111111111 0.07142857142857142 0  0.1666666666666667 0.07142857142857142 0  0.2222222222222222 0.07142857142857142 0  0.2777777777777778 0.07142857142857142 0  0.3333333333333333 0.07142857142857142 0  0.3888888888888889 0.07142857142857142 0  0.4444444444444444 0.07142857142857142 0  0.5 0.07142857142857142 0  0.5555555555555556 0.07142857142857142 0  0.6111111111111112 0.07142857142857142 0  0.6666666666666666 0.07142857142857142 0  0.7222222222222222 0.07142857142857142 0  0.7777777777777778 0.07142857142857142 0  0.8333333333333334 0.07142857142857142 0  0.8888888888888888 0.07142857142857142 0  0.9444444444444444 0.07142857142857142 0  1 0.07142857142857142 0  0 0.08571428571428573 0  0.05555555555555555 0.08571428571428573 0  0.1111111111111111 0.08571428571428573 0  0.1666666666666667 0.08571428571428573 0  0.2222222222222222 0.08571428571428573 0  0.2777777777777778 0.08571428571428573 0  0.3333333333333333 0.08571428571428573 0  0.3888888888888889 0.08571428571428573 0  0.4444444444444444 0.08571428571428573 0  0.5 0.08571428571428573 0  0.5555555555555556 0.08571428571428573 0  0.6111111111111112 0.08571428571428573 0  0.6666666666666666 0.08571428571428573 0  0.7222222222222222 0.08571428571428573 0  0.7777777777777778 0.08571428571428573 0  0.8333333333333334 0.08571428571428573 0  0.8888888888888888 0.08571428571428573 0  0.9444444444444444 0.08571428571428573 0  1 0.08571428571428573 0  0 0.1 0  0.05555555555555555 0.1 0  0.1111111111111111 0.1 0  0.1666666666666667 0.1 0  0.2222222222222222 0.1 0  0.2777777777777778 0.1 0  0.3333333333333333 0.1 0  0.3888888888888889 0.1 0  0.4444444444444444 0.1 0  0.5 0.1 0  0.5555555555555556 0.1 0  0.6111111111111112 0.1 0  0.6666666666666666 0.1 0  0.7222222222222222 0.1 0  0.7777777777777778 0.1 0  0.8333333333333334 0.1 0  0.8888888888888888 0.1 0  0.9444444444444444 0.1 0  1 0.1 0  0 0 0.01  0.05555555555555555 0 0.01  0.1111111111111111 0 0.01  0.1666666666666667 0 0.01  0.2222222222222222 0 0.01  0.2777777777777778 0 0.01  0.3333333333333333 0 0.01  0.3888888888888889 0 0.01  0.4444444444444444 0 0.01  0.5 0 0.01  0.5555555555555556 0 0.01  0.6111111111111112 0 0.01  0.6666666666666666 0 0.01  0.7222222222222222 0 0.01  0.7777777777777778 0 0.01  0.8333333333333334 0 0.01  0.8888888888888888 0 0.01  0.9444444444444444 0 0.01  1 0 0.01  0 0.01428571428571429 0.01  0.05555555555555555 0.01428571428571429 0.01  0.1111111111111111 0.01428571428571429 0.01  0.1666666666666667 0.01428571428571429 0.01  0.2222222222222222 0.01428571428571429 0.01  0.2777777777777778 0.01428571428571429 0.01  0.3333333333333333 0.01428571428571429 0.01  0.3888888888888889 0.01428571428571429 0.01  0.4444444444444444 0.01428571428571429 0.01  0.5 0.01428571428571429 0.01  0.5555555555555556 0.01428571428571429 0.01  0.6111111111111112 0.01428571428571429 0.01  0.6666666666666666 0.01428571428571429 0.01  0.7222222222222222 0.01428571428571429 0.01  0.7777777777777778 0.01428571428571429 0.01  0.8333333333333334 0.01428571428571429 0.01  0.8888888888888888 0.01428571428571429 0.01  0.9444444444444444 0.01428571428571429 0.01  1 0.01428571428571429 0.01  0 0.02857142857142857 0.01  0.05555555555555555 0.02857142857142857 0.01  0.1111111111111111 0.02857142857142857 0.01  0.1666666666666667 0.02857142857142857 0.01  0.2222222222222222 0.02857142857142857 0.01  0.2777777777777778 0.02857142857142857 0.01  0.3333333333333333 0.02857142857142857 0.01  0.3888888888888889 0.02857142857142857 0.01  0.4444444444444444 0.02857142857142857 0.01  0.5 0.02857142857142857 0.01  0.5555555555555556 0.02857142857142857 0.01  0.6111111111111112 0.02857142857142857 0.01  0.6666666666666666 0.02857142857142857 0.01  0.7222222222222222 0.02857142857142857 0.01  0.7777777777777778 0.02857142857142857 0.01  0.8333333333333334 0.02857142857142857 0.01  0.8888888888888888 0.02857142857142857 0.01  0.9444444444444444 0.02857142857142857 0.01  1 0.02857142857142857 0.01  0 0.04285714285714286 0.01  0.05555555555555555 0.04285714285714286 0.01  0.1111111111111111 0.04285714285714286 0.01  0.1666666666666667 0.04285714285714286 0.01  0.2222222222222222 0.04285714285714286 0.01  0.2777777777777778 0.04285714285714286 0.01  0.3333333333333333 0.04285714285714286 0.01  0.3888888888888889 0.04285714285714286 0.01  0.4444444444444444 0.04285714285714286 0.01  0.5 0.04285714285714286 0.01  0.5555555555555556 0.04285714285714286 0.01  0.6111111111111112 0.04285714285714286 0.01  0.6666666666666666 0.04285714285714286 0.01  0.7222222222222222 0.04285714285714286 0.01  0.7777777777777778 0.04285714285714286 0.01  0.8333333333333334 0.04285714285714286 0.01  0.8888888888888888 0.04285714285714286 0.01  0.9444444444444444 0.04285714285714286 0.01  1 0.04285714285714286 0.01  0 0.05714285714285715 0.01  0.05555555555555555 0.05714285714285715 0.01  0.1111111111111111 0.05714285714285715 0.01  0.1666666666666667 0.05714285714285715 0.01  0.2222222222222222 0.05714285714285715 0.01  0.2777777777777778 0.05714285714285715 0.01  0.3333333333333333 0.05714285714285715 0.01  0.3888888888888889 0.05714285714285715 0.01  0.4444444444444444 0.05714285714285715 0.01  0.5 0.05714285714285715 0.01  0.5555555555555556 0.05714285714285715 0.01  0.6111111111111112 0.05714285714285715 0.01  0.6666666666666666 0.05714285714285715 0.01  0.7222222222222222 0.05714285714285715 0.01  0.7777777777777778 0.05714285714285715 0.01  0.8333333333333334 0.05714285714285715 0.01  0.8888888888888888 0.05714285714285715 0.01  0.9444444444444444 0.05714285714285715 0.01  1 0.05714285714285715 0.01  0 0.07142857142857142 0.01  0.05555555555555555 0.07142857142857142 0.01  0.1111111111111111 0.07142857142857142 0.01  0.1666666666666667 0.07142857142857142 0.01  0.2222222222222222 0.07142857142857142 0.01  0.2777777777777778 0.07142857142857142 0.01  0.3333333333333333 0.07142857142857142 0.01  0.3888888888888889 0.07142857142857142 0.01  0.4444444444444444 0.07142857142857142 0.01  0.5 0.07142857142857142 0.01  0.5555555555555556 0.07142857142857142 0.01  0.6111111111111112 0.07142857142857142 0.01  0.6666666666666666 0.07142857142857142 0.01  0.7222222222222222 0.07142857142857142 0.01  0.7777777777777778 0.07142857142857142 0.01  0.8333333333333334 0.07142857142857142 0.01  0.8888888888888888 0.07142857142857142 0.01  
[...]
<PointData  Vectors="f_33"> 
<DataArray  type="Float64"  Name="f_33"  NumberOfComponents="3" format="ascii">0.0000000000000000e+00 0.0000000000000000e+00 0.0000000000000000e+00  -2.9663229552823237e-03 -1.8404259875017982e-04 -4.2645051719477209e-03  -5.5358602260643453e-03 1.3540620468325109e-04 -1.6346596021344337e-02  -7.8806736260425454e-03 6.5104139818187646e-04 -3.5696703993933931e-02  -1.0004162026835581e-02 1.3115956993623805e-03 -6.1623620300890435e-02  -1.1909714378715760e-02 2.0903434556990394e-03 -9.3472666245765987e-02  -1.3600159685469442e-02 2.9694432043217036e-03 -1.3060298225570999e-01  -1.5079733136962549e-02 3.9342177783668227e-03 -1.7238650827166910e-01  -1.6354386445180502e-02 4.9713856716956757e-03 -2.1821098570315481e-01  -1.7431896708899264e-02 6.0685131555607754e-03 -2.6748440088931119e-01  -1.8321984319473954e-02 7.2138974641346408e-03 -3.1964021301266338e-01  -1.9036434878567082e-02 8.3966093225822224e-03 -3.7414312599317617e-01  -1.9589209882818131e-02 9.6065977946151477e-03 -4.3049527523147518e-01  -1.9996539897482624e-02 1.0834821540000495e-02 -4.8824274102261511e-01  -2.0276998734276637e-02 1.2073393116027254e-02 -5.4698231831057065e-01  -2.0451560464442239e-02 1.3315732390393823e-02 -6.0636848234596985e-01  -2.0543655531308012e-02 1.4556728221246247e-02 -6.6612050070628426e-01  -2.0579278878797774e-02 1.5792895846105898e-02 -7.2602972122266995e-01  -2.0586910744862325e-02 1.7022663238758423e-02 -7.8596779341522960e-01  0.0000000000000000e+00 0.0000000000000000e+00 0.0000000000000000e+00  -2.8309399011035882e-03 -3.7369837812678311e-05 -4.3900976720359615e-03  -5.4606167557487584e-03 2.6542366476671995e-04 -1.6435470410773794e-02  -7.8564877997457042e-03 7.6872400009206062e-04 -3.5697242646564847e-02  -1.0027571647312499e-02 1.4173438747470740e-03 -6.1526604990913468e-02  -1.1977009299987676e-02 2.1843554603787245e-03 -9.3280541578531079e-02  -1.3707642336413242e-02 3.0519488096710594e-03 -1.3032209323460142e-01  -1.5223723002766899e-02 4.0055319921380077e-03 -1.7202459420835228e-01  -1.6531208325749485e-02 5.0319206792942689e-03 -2.1777629032835230e-01  -1.7637882924423490e-02 6.1187852816550758e-03 -2.6698531392912161e-01  -1.8553489451356518e-02 7.2545339964948637e-03 -3.1908509940407065e-01  -1.9289857821869358e-02 8.4283547619212178e-03 -3.7354022074965737e-01  -1.9861020464039383e-02 9.6303191175189356e-03 -4.2985259905270440e-01  -2.0283308848788800e-02 1.0851512305985972e-02 -4.8756802004084876e-01  -2.0575430358899086e-02 1.2084176226676690e-02 -5.4628290162092752e-01  -2.0758526358287087e-02 1.3321861173914318e-02 -6.0565125342992088e-01  -2.0856221769411591e-02 1.4559585399141805e-02 -6.6539177503815394e-01  -2.0894741395115234e-02 1.5793977008538834e-02 -7.2529509639935597e-01  -2.0903358693467544e-02 1.7023217148877220e-02 -7.8523179602364779e-01  0.0000000000000000e+00 0.0000000000000000e+00 0.0000000000000000e+00  -2.8208744643425016e-03 7.4670226418368783e-05 -4.4395860799908019e-03  -5.4760004111323148e-03 3.9252050144382271e-04 -1.6437120116524564e-02  -7.9099970838559571e-03 8.9161294357829380e-04 -3.5613925060631192e-02  -1.0119058457444171e-02 1.5305770596869199e-03 -6.1352940137682686e-02  -1.2103917146585179e-02 2.2861732559049325e-03 -9.3019765912770197e-02  -1.3866818094311737e-02 3.1419229789003446e-03 -1.2998063629720588e-01  -1.5411861959794442e-02 4.0837495969498205e-03 -1.7161005559673184e-01  -1.6744993159858512e-02 5.0987158391559307e-03 -2.1729665747444754e-01  -1.7874043804660594e-02 6.1746530936232624e-03 -2.6644863120490925e-01  -1.8808843549560233e-02 7.3001047040589656e-03 -3.1849930289106709e-01  -1.9561343106485031e-02 8.4643883171643518e-03 -3.7291303225438122e-01  -2.0145728519990337e-02 9.6577063658686707e-03 -4.2919143922097847e-01  -2.0578518406966326e-02 1.0871277777127668e-02 -4.8687992562544913e-01  -2.0878641937191911e-02 1.2097480364727457e-02 -5.4557444139986644e-01  -2.1067496783861644e-02 1.3330000402590397e-02 -6.0492844020652115e-01  -2.1168991267474298e-02 1.4563989560330269e-02 -6.6465996984473763e-01  -2.1209640923816615e-02 1.5796206738725324e-02 -7.2455888942681479e-01  -2.1219075697629781e-02 1.7024787882825899e-02 -7.8449475653982348e-01  0.0000000000000000e+00 0.0000000000000000e+00 0.0000000000000000e+00  -2.8315093309736680e-03 1.7135620453314818e-04 -4.4254491031965430e-03  -5.5121394187805138e-03 5.1528741687004349e-04 -1.6348696787863659e-02  -7.9827796475864157e-03 1.0165754929815985e-03 -3.5439744354577730e-02  -1.0228211729233896e-02 1.6480818440248466e-03 -6.1094199115578153e-02  -1.2246684130429907e-02 2.3928040280221394e-03 -9.2681937676702145e-02  -1.4039984094656227e-02 3.2366124361904221e-03 -1.2957079721407186e-01  -1.5612136522332355e-02 4.1663483979274690e-03 -1.7113586330338293e-01  -1.6969110502830953e-02 5.1694753878921001e-03 -2.1676590059182968e-01  -1.8118810240539681e-02 6.2340454248537569e-03 -2.6586900875258490e-01  -1.9071173347969001e-02 7.3487618482609186e-03 -3.1787829530027395e-01  -1.9838291634815517e-02 8.5030839621733651e-03 -3.7225780573847272e-01  -2.0434525337523185e-02 9.6873523417493577e-03 -4.2850876031686735e-01  -2.0876601281224930e-02 1.0892925226223302e-02 -4.8617607719443939e-01  -2.1183692006387842e-02 1.2112321452769539e-02 -5.4485513712736733e-01  -2.1377474301848328e-02 1.3339367943319171e-02 -6.0419873688007009e-01  -2.1482165516616601e-02 1.4569353611144224e-02 -6.6392417673255832e-01  -2.1524586540894571e-02 1.5799178254640164e-02 -7.2382046373112430e-01  -2.1534673939861585e-02 1.7027126188869986e-02 -7.8375607509510015e-01  0.0000000000000000e+00 0.0000000000000000e+00 0.0000000000000000e+00  -2.8370355720304251e-03 2.6568958922144350e-04 -4.3527494517183428e-03  -5.5498861965218287e-03 6.3740356869551303e-04 -1.6174498994512954e-02  -8.0598656372780283e-03 1.1433459676559309e-03 -3.5175132469107181e-02  -1.0342426665914671e-02 1.7685538422677872e-03 -6.0749352743654936e-02  -1.2394506416596776e-02 2.5027035464944805e-03 -9.2265520797823991e-02  -1.4217918084352153e-02 3.3344854295214968e-03 -1.2909093459046206e-01  -1.5816787655158752e-02 4.2518889200986384e-03 -1.7060043367971078e-01  -1.7197173097783621e-02 5.2428770333575007e-03 -2.1618255609955650e-01  -1.8367076201380405e-02 6.2957636060022044e-03 -2.6524512473487044e-01  -1.9336554135016025e-02 7.3994297904253197e-03 -3.1722090168798273e-01  -2.0117846310865224e-02 8.5434852939347741e-03 -3.7157351116406157e-01  -2.0725491908638451e-02 9.7184141946249879e-03 -4.2780367162847721e-01  -2.1176430237982314e-02 1.0915718254354362e-02 -4.8545571545426908e-01  -2.1490081558892971e-02 1.2128061353020294e-02 -5.4412435099809753e-01  -2.1688407360134245e-02 1.3349415385402054e-02 -6.0346161478107574e-01  -2.1795945361428606e-02 1.4575210542181400e-02 -6.6318395983399869e-01  -2.1839840230420831e-02 1.5802495944666671e-02 -7.2307945054293077e-01  -2.1850377411805091e-02 1.7029856299020731e-02 -7.8301545513882687e-01  0.0000000000000000e+00 0.0000000000000000e+00 0.0000000000000000e+00  -2.8280003895778355e-03 3.6870878065320742e-04 -4.2188506739540650e-03  -5.5800085324701990e-03 7.6482895529646168e-04 -1.5914005218206552e-02  -8.1331697433851026e-03 1.2740942631433699e-03 -3.4819819548360650e-02  -1.0454501647628905e-02 1.8925246062211592e-03 -6.0317842152330034e-02  -1.2541008797655339e-02 2.6158019543641824e-03 -9.1769789239957017e-02  -1.4395055888332316e-02 3.4352542385751713e-03 -1.2854028854075983e-01  -1.6021038989836957e-02 4.3400037529144186e-03 -1.7000304161049240e-01  -1.7425161172300120e-02 5.3185240155621070e-03 -2.1554596334502346e-01  -1.8615540113457504e-02 6.3593999993255138e-03 -2.6457639438643754e-01  -1.9602356502552671e-02 7.4516968005401956e-03 -3.1652661664746290e-01  -2.0397995636508463e-02 8.5851790016029834e-03 -3.7085972238212145e-01  -2.1017171704456463e-02 9.7504780362342117e-03 -4.2707582431220631e-01  -2.1477031765415325e-02 1.0939242941395869e-02 -4.8471856566105509e-01  -2.1797238861454963e-02 1.2144286681611896e-02 -5.4338187792132664e-01  -2.2000034830451827e-02 1.3359731200638547e-02 -6.0271693196747267e-01  -2.2110280763759690e-02 1.4581153928879324e-02 -6.6243922937045863e-01  -2.2155468245582323e-02 1.5805761931636200e-02 -7.2233579641155843e-01  -2.2166285492878565e-02 1.7032553396960633e-02 -7.8227288185061206e-01  0.0000000000000000e+00 0.0000000000000000e+00 0.0000000000000000e+00  -2.7910726876405122e-03 4.8996504917970889e-04 -4.0111064710935396e-03  -5.5870828928727065e-03 9.0320728630519900e-04 -1.5560286632897932e-02  -8.1871277508070734e-03 1.4115402355808499e-03 -3.4370343824254163e-02  -1.0549606678772791e-02 2.0211843509657813e-03 -5.9797402791200646e-02  -1.2672595273019517e-02 2.7326111017327522e-03 -9.1193000950034270e-02  -1.4559220166620106e-02 3.5391304149947631e-03 -1.2791744023529583e-01  -1.6214179305326870e-02 4.4307568415435667e-03 -1.6934252578169423e-01  -1.7643818331065417e-02 5.3963926772816924e-03 -2.1485519115332341e-01  -1.8856358914285398e-02 6.4248673003196007e-03 -2.6386210013795702e-01  -1.9862088960221000e-02 7.5054223226650113e-03 -3.1579492178164686e-01  -2.0673520839876593e-02 8.6279768803300821e-03 -3.7011610482901730e-01  -2.1305523469068704e-02 9.7833122071328757e-03 -4.2632505027055695e-01  -2.1775430472768476e-02 1.0963228257256223e-02 -4.8396460629547466e-01  -2.2103125919567704e-02 1.2160691497756160e-02 -5.4262782018955369e-01  -2.2311109577633784e-02 1.3369979795214579e-02 -6.0196488791643044e-01  -2.2424548141476756e-02 1.4586826229865511e-02 -6.6169024819456168e-01  -2.2471296510069547e-02 1.5808597106376047e-02 -7.2158978565724963e-01  -2.2482423469642590e-02 1.7034791835595357e-02 -7.8152862524914790e-01  0.0000000000000000e+00 0.0000000000000000e+00 0.0000000000000000e+00  -2.6690394794956882e-03 6.2185245311438206e-04 -3.7234815579008564e-03  -5.5069982827962013e-03 1.0452019596589592e-03 -1.5113916119932231e-02  -8.1587725574505734e-03 1.5485089657358043e-03 -3.3830982818491069e-02  -1.0568627550320828e-02 2.1476469198146563e-03 -5.9193414988035389e-02  -1.2735339749734901e-02 2.8467495626481524e-03 -9.0540696949006114e-02  -1.4662154217402652e-02 3.6403686580706715e-03 -1.2722772040801469e-01  -1.6353727084032339e-02 4.5190908592600103e-03 -1.6862386361442991e-01  -1.7816370872248563e-02 5.4721189048926797e-03 -2.1411480813161349e-01  -1.9058301298979254e-02 6.4884752167443400e-03 -2.6310638064141756e-01  -2.0089825466181380e-02 7.5575560514635669e-03 -3.1502951908768839e-01  -2.0923500345446430e-02 8.6694244004354628e-03 -3.6934592431554192e-01  -2.1574266920327240e-02 9.8150047885977258e-03 -4.2555418426085961e-01  -2.2059560803836375e-02 1.0986243141493351e-02 -4.8319625011087175e-01  -2.2399400320424624e-02 1.2176255200326176e-02 -5.4186418134472891e-01  -2.2616454395180608e-02 1.3379471586285612e-02 -6.0120709336416311e-01  -2.2736098202846812e-02 1.4591785188729037e-02 -6.6093825179314281e-01  -2.2786509318157028e-02 1.5810697730450605e-02 -7.2084224064960811e-01  -2.2798844437939128e-02 1.7036297194030853e-02 -7.8078305914860524e-01  0.0000000000000000e+00 0.0000000000000000e+00 0.0000000000000000e+00  -1.3689225612767821e-03 -7.1904093985948589e-05 -4.1389649459935424e-03  -2.5970427466675684e-03 2.1973238105903588e-04 -1.6230528960614374e-02  -3.7120882340391783e-03 6.6970748476629987e-04 -3.5590082782567485e-02  -4.7227363479195750e-03 1.2593733276564695e-03 -6.1526828242143977e-02  -5.6307629262585092e-03 1.9694797516996297e-03 -9.3385785074276556e-02  -6.4372188931112002e-03 2.7846002745565471e-03 -1.3052594866766959e-01  -7.1439247144863584e-03 3.6909331171742291e-03 -1.7231914645291455e-01  -7.7535868406082096e-03 4.6755231727776420e-03 -2.1815302560842587e-01  -8.2698032667044754e-03 5.7260397729149140e-03 -2.6743548285895918e-01  -8.6970981171024062e-03 6.8307744140225632e-03 -3.1959988560849600e-01  -9.0409716984056147e-03 7.9787230066363374e-03 -3.7411084163833735e-01  -9.3079505592859237e-03 9.1597028154580852e-03 -4.3047038563177137e-01  -9.5056311329470670e-03 1.0364485575301580e-02 -4.8822449308264448e-01  -9.6427150049364849e-03 1.1584939680373553e-02 -5.4696985072245607e-01  -9.7290365772899987e-03 1.2814178851396177e-02 -6.0636082272743208e-01  -9.7755906917785414e-03 1.4046713145091849e-02 -6.6611656168095423e-01  -9.7945798325090126e-03 1.5278571856792603e-02 -7.2602828823914689e-01  -9.7992143841422880e-03 1.6507502578255607e-02 -7.8596716187488302e-01  0.0000000000000000e+00 0.0000000000000000e+00 0.0000000000000000e+00  -1.3417437462662604e-03 1.9886193901971257e-05 -4.2519960077640169e-03  -2.6316627203099522e-03 2.9417908387407440e-04 -1.6318431085190873e-02  -3.7882698291951907e-03 7.3735354677744575e-04 -3.5590733420854233e-02  -4.8368353625250944e-03 1.3203619189468873e-03 -6.1430219248281952e-02  -5.7789948147104172e-03 2.0238577642353443e-03 -9.3194096961855474e-02  -6.6159882186121463e-03 2.8324558757238747e-03 -1.3024544374301736e-01  -7.3497653113068660e-03 3.7324207607971603e-03 -1.7195753831027458e-01  -7.9831300560519475e-03 4.7108598445080672e-03 -2.1771855327890072e-01  -8.5197778466273525e-03 5.7555039577443130e-03 -2.6693653999386302e-01  -8.9643480720499932e-03 6.8547079898194250e-03 -3.1904484513536213e-01  -9.3224827425313541e-03 7.9975341029445493e-03 -3.7350794892589867e-01  -9.6008809653381245e-03 9.1738686199691177e-03 -4.2982767346488976e-01  -9.8073453170675253e-03 1.0374554697151468e-02 -4.8754970117530377e-01  -9.9508190523963317e-03 1.1591533913897799e-02 -5.4627034319365164e-01  -1.0041414324734257e-02 1.2817994435175577e-02 -6.0564349973218312e-01  -1.0090435746342052e-02 1.4048522369240488e-02 -6.6538775815197038e-01  -1.0110437801395495e-02 1.5279222962117606e-02 -7.2529362172788669e-01  -1.0115410563454438e-02 1.6507737138450326e-02 -7.8523130404140928e-01  0.0000000000000000e+00 0.0000000000000000e+00 0.0000000000000000e+00  -1.3529078747445493e-03 8.1367468324287901e-05 -4.2972383700831639e-03  -2.6767774705218133e-03 3.6070338197773772e-04 -1.6314905332189739e-02  -3.8722150172727618e-03 8.0113273038280055e-04 -3.5504901250010275e-02  -4.9568399593620553e-03 1.3789026674929619e-03 -6.1255030174937428e-02  -5.9318458185930898e-03 2.0764281488547518e-03 -9.2932229085351481e-02  -6.7983339921373481e-03 2.8788880974942484e-03 -1.2990312692410480e-01  -7.5582678767855960e-03 3.7727763400009695e-03 -1.7154230006290996e-01  -8.2145138050289130e-03 4.7453153066124940e-03 -2.1723835253809748e-01  -8.7708586126018263e-03 5.7843144431058823e-03 -2.6639940742977253e-01  -9.2320621221115649e-03 6.8781966988792640e-03 -3.1845870774623258e-01  -9.6039175870139167e-03 8.0160904861457175e-03 -3.7288052032289831e-01  -9.8933079202443343e-03 9.1879493658473550e-03 -4.2916636557069487e-01  -1.0108253673503959e-02 1.0384685340307455e-02 -4.8686154092366046e-01  -1.0257951590626939e-02 1.1598310108821456e-02 -5.4556188817942197e-01  -1.0352802886544648e-02 1.2822082314436932e-02 -6.0492075009433266e-01  -1.0404431335132185e-02 1.4050659313991685e-02 -6.6465606123453624e-01  -1.0425732928458579e-02 1.5280226136724218e-02 -7.2455755431590319e-01  -1.0431194786731062e-02 1.6508415613773801e-02 -7.8449445865118428e-01  0.0000000000000000e+00 0.0000000000000000e+00 0.0000000000000000e+00  -1.3754070557535911e-03 1.3279247680498204e-04 -4.2799539252584180e-03  -2.7313262058460165e-03 4.2285752515823510e-04 -1.6222645474857435e-02  -3.9641334521481929e-03 8.6384046761832497e-04 -3.5328036787421274e-02  -5.0839638603518865e-03 1.4377848174322609e-03 -6.0994395190696854e-02  -6.0909877752488044e-03 2.1298063583946336e-03 -9.2592936014371824e-02  -6.9861461601105485e-03 2.9262529288156822e-03 -1.2949208641802776e-01  -7.7714335110792686e-03 3.8140667614180645e-03 -1.7106710086026622e-01  -8.4497895716768457e-03 4.7806636247379681e-03 -2.1670675376382223e-01  -9.0251018233317212e-03 5.8139599020985994e-03 -2.6581909288266792e-01  -9.5022594189750897e-03 6.9024572957322328e-03 -3.1783714705193283e-01  -9.8872159068458271e-03 8.0353547360287759e-03 -3.7222486953414796e-01  -1.0187047293712965e-02 9.2026749137146951e-03 -4.2848338024680344e-01  -1.0410001587189063e-02 1.0395399687416072e-02 -4.8615749154326238e-01  -1.0565538648211244e-02 1.1605611482389222e-02 -5.4484247438038191e-01  -1.0664359049391352e-02 1.2826639369449498e-02 -6.0419101284802257e-01  -1.0718417778447356e-02 1.4053210509530276e-02 -6.6392029295447863e-01  -1.0740952842135401e-02 1.5281593587840104e-02 -7.2381919824062657e-01  -1.0746851436017729e-02 1.6509528539488786e-02 -7.8375590040013787e-01  0.0000000000000000e+00 0.0000000000000000e+00 0.0000000000000000e+00  -1.3963691597701727e-03 1.8338459525481867e-04 -4.2062038729438530e-03  -2.7875483277526509e-03 4.8481952371118390e-04 -1.6046086868701920e-02  -4.0584478996655233e-03 9.2770417263718092e-04 -3.5061140235349703e-02  -5.2136899475185130e-03 1.4984215908531945e-03 -6.0647694556962513e-02  -6.2526338967184318e-03 2.1850829574462183e-03 -9.2174992549932930e-02  -7.1762674031062733e-03 2.9754480246705979e-03 -1.2901093157015067e-01  -7.9866808851151751e-03 3.8570364644001432e-03 -1.7053056691221677e-01  -8.6869098720511982e-03 4.8175112803931566e-03 -2.1612247044753624e-01  -9.2809518523529495e-03 5.8449178917472713e-03 -2.6519442252319209e-01  -9.7738302312293541e-03 6.9278463408103449e-03 -3.1717910934128224e-01  -1.0171662109965257e-02 8.0555709146022895e-03 -3.7154006293036174e-01  -1.0481719269012164e-02 9.2181865205891080e-03 -4.2777790038752417e-01  -1.0712479694981857e-02 1.0406747359353010e-02 -4.8543684679314719e-01  -1.0873668934840628e-02 1.1613408917441177e-02 -5.4411149903252309e-01  -1.0976290425866722e-02 1.2831572894759155e-02 -6.0345377916521414e-01  -1.1032638498404104e-02 1.4056037135826052e-02 -6.6318002471445769e-01  -1.1056302739830895e-02 1.5283157362722967e-02 -7.2307818057799722e-01  -1.1062541952145663e-02 1.6510879092854567e-02 -7.8301532072075775e-01  0.0000000000000000e+00 0.0000000000000000e+00 0.0000000000000000e+00  -1.4105249024428295e-03 2.4011795746611860e-04 -4.0743655010671382e-03  -2.8401146462953405e-03 5.5067616643221593e-04 -1.5785228914248436e-02  -4.1507153160677893e-03 9.9479915338385118e-04 -3.4704716243904414e-02  -5.3420503912595717e-03 1.5619800173838621e-03 -6.0215051393530887e-02  -6.4132723389218726e-03 2.2430389991133946e-03 -9.1678232780984151e-02  -7.3656427606990718e-03 3.0270648847310227e-03 -1.2845936997769922e-01  -8.2014037921888886e-03 3.9021556746720028e-03 -1.6993236534561634e-01  -8.9237004577039317e-03 4.8562324934489400e-03 -2.1548516826412492e-01  -9.5366435977205372e-03 5.8774773121033370e-03 -2.6452507795692898e-01  -1.0045390559407773e-02 6.9545733547215398e-03 -3.1648430060103649e-01  -1.0456220115964343e-02 8.0768738916133336e-03 -3.7082583581289680e-01  -1.0776597271652141e-02 9.2345492516471006e-03 -4.2704969416808369e-01  -1.1015227183469530e-02 1.0418729116333490e-02 -4.8469941067316569e-01  -1.1182098216357102e-02 1.1621645338370840e-02 -5.4336880438204593e-01  -1.1288514367053989e-02 1.2836776026380933e-02 -6.0270893063236652e-01  -1.1347113023376532e-02 1.4058992716751042e-02 -6.6243517414385267e-01  -1.1371852834858634e-02 1.5284739351927791e-02 -7.2233444575803507e-01  -1.1378349419318862e-02 1.6512241181609287e-02 -7.8227269804830390e-01  0.0000000000000000e+00 0.0000000000000000e+00 0.0000000000000000e+00  -1.4138567165858202e-03 3.1140464314054759e-04 -3.8731521718349577e-03  -2.8832598649803838e-03 6.2595644564797815e-04 -1.5434047589476158e-02  -4.2348270000501639e-03 1.0687801588910584e-03 -3.4256274123006927e-02  -5.4630672173066374e-03 1.6310719941256390e-03 -5.9695101241118709e-02  -6.5673541171104837e-03 2.3057092139760630e-03 -9.1101687329610867e-02  -7.5492707896888068e-03 3.0827728122790263e-03 -1.2783662943010607e-01  -8.4111852819087948e-03 3.9508156301470360e-03 -1.6927186594842875e-01  -9.1563318250814027e-03 4.8979786400570177e-03 -2.1479434129710875e-01  -9.7889217941800940e-03 5.9125704271736816e-03 -2.6381067004222897e-01  -1.0314236470423043e-02 6.9833670198672110e-03 