<?xml version="1.0"?>
<VTKFile type="UnstructuredGrid"  version="0.1"  >
<UnstructuredGrid>
<Piece  NumberOfPoints="760" NumberOfCells="3024">
<Points>
<DataArray  type="Float64"  NumberOfComponents="3"  format="ascii">0 0 0  0.05555555555555555 0 0  0.1111111111111111 0 0  0.1666666666666667 0 0  0.2222222222222222 0 0  0.2777777777777778 0 0  0.3333333333333333 0 0  0.3888888888888889 0 0  0.4444444444444444 0 0  0.5 0 0  0.5555555555555556 0 0  0.6111111111111112 0 0  0.6666666666666666 0 0  0.7222222222222222 0 0  0.7777777777777778 0 0  0.8333333333333334 0 0  0.8888888888888888 0 0  0.9444444444444444 0 0  1 0 0  0 0.01428571428571429 0  0.05555555555555555 0.01428571428571429 0  0.1111111111111111 0.01428571428571429 0  0.1666666666666667 0.01428571428571429 0  0.2222222222222222 0.01428571428571429 0  0.2777777777777778 0.01428571428571429 0  0.3333333333333333 0.01428571428571429 0  0.3888888888888889 0.01428571428571429 0  0.4444444444444444 0.01428571428571429 0  0.5 0.01428571428571429 0  0.5555555555555556 0.01428571428571429 0  0.6111111111111112 0.01428571428571429 0  0.6666666666666666 0.01428571428571429 0  0.7222222222222222 0.01428571428571429 0  0.7777777777777778 0.01428571428571429 0  0.8333333333333334 0.01428571428571429 0  0.8888888888888888 0.01428571428571429 0  0.9444444444444444 0.01428571428571429 0  1 0.01428571428571429 0  0 0.02857142857142857 0  0.05555555555555555 0.02857142857142857 0  0.1111111111111111 0.02857142857142857 0  0.1666666666666667 0.02857142857142857 0  0.2222222222222222 0.02857142857142857 0  0.2777777777777778 0.02857142857142857 0  0.3333333333333333 0.02857142857142857 0  0.3888888888888889 0.02857142857142857 0  0.4444444444444444 0.02857142857142857 0  0.5 0.02857142857142857 0  0.5555555555555556 0.02857142857142857 0  0.6111111111111112 0.02857142857142857 0  0.6666666666666666 0.02857142857142857 0  0.7222222222222222 0.02857142857142857 0  0.7777777777777778 0.02857142857142857 0  0.8333333333333334 0.02857142857142857 0  0.8888888888888888 0.02857142857142857 0  0.9444444444444444 0.02857142857142857 0  1 0.02857142857142857 0  0 0.04285714285714286 0  0.05555555555555555 0.04285714285714286 0  0.1111111111111111 0.04285714285714286 0  0.1666666666666667 0.04285714285714286 0  0.2222222222222222 0.04285714285714286 0  0.2777777777777778 0.04285714285714286 0  0.3333333333333333 0.04285714285714286 0  0.3888888888888889 0.04285714285714286 0  0.4444444444444444 0.04285714285714286 0  0.5 0.04285714285714286 0  0.5555555555555556 0.04285714285714286 0  0.6111111111111112 0.04285714285714286 0  0.6666666666666666 0.04285714285714286 0  0.7222222222222222 0.04285714285714286 0  0.7777777777777778 0.04285714285714286 0  0.8333333333333334 0.04285714285714286 0  0.8888888888888888 0.04285714285714286 0  0.9444444444444444 0.04285714285714286 0  1 0.04285714285714286 0  0 0.05714285714285715 0  0.05555555555555555 0.05714285714285715 0  0.1111111111111111 0.05714285714285715 0  0.1666666666666667 0.05714285714285715 0  0.2222222222222222 0.05714285714285715 0  0.2777777777777778 0.05714285714285715 0  0.3333333333333333 0.05714285714285715 0  0.3888888888888889 0.05714285714285715 0  0.4444444444444444 0.05714285714285715 0  0.5 0.05714285714285715 0  0.5555555555555556 0.05714285714285715 0  0.6111111111111112 0.05714285714285715 0  0.6666666666666666 0.05714285714285715 0  0.7222222222222222 0.05714285714285715 0  0.7777777777777778 0.05714285714285715 0  0.8333333333333334 0.05714285714285715 0  0.8888888888888888 0.05714285714285715 0  0.9444444444444444 0.05714285714285715 0  1 0.05714285714285715 0  0 0.07142857142857142 0  0.05555555555555555 0.07142857142857142 0  0.1111111111111111 0.07142857142857142 0  0.1666666666666667 0.07142857142857142 0  0.2222222222222222 0.07142857142857142 0  0.2777777777777778 0.07142857142857142 0  0.3333333333333333 0.07142857142857142 0  0.3888888888888889 0.07142857142857142 0  0.4444444444444444 0.07142857142857142 0  0.5 0.07142857142857142 0  0.5555555555555556 0.07142857142857142 0  0.6111111111111112 0.07142857142857142 0  0.6666666666666666 0.07142857142857142 0  0.7222222222222222 0.07142857142857142 0  0.7777777777777778 0.07142857142857142 0  0.8333333333333334 0.07142857142857142 0  0.8888888888888888 0.07142857142857142 0  0.9444444444444444 0.07142857142857142 0  1 0.07142857142857142 0  0 0.08571428571428573 0  0.05555555555555555 0.08571428571428573 0  0.1111111111111111 0.08571428571428573 0  0.1666666666666667 0.08571428571428573 0  0.2222222222222222 0.08571428571428573 0  0.2777777777777778 0.08571428571428573 0  0.3333333333333333 0.08571428571428573 0  0.3888888888888889 0.08571428571428573 0  0.4444444444444444 0.08571428571428573 0  0.5 0.08571428571428573 0  0.5555555555555556 0.08571428571428573 0  0.6111111111111112 0.08571428571428573 0  0.6666666666666666 0.08571428571428573 0  0.7222222222222222 0.08571428571428573 0  0.7777777777777778 0.08571428571428573 0  0.8333333333333334 0.08571428571428573 0  0.8888888888888888 0.08571428571428573 0  0.9444444444444444 0.08571428571428573 0  1 0.08571428571428573 0  0 0.1 0  0.05555555555555555 0.1 0  0.1111111111111111 0.1 0  0.1666666666666667 0.1 0  0.2222222222222222 0.1 0  0.2777777777777778 0.1 0  0.3333333333333333 0.1 0  0.3888888888888889 0.1 0  0.4444444444444444 0.1 0  0.5 0.1 0  0.5555555555555556 0.1 0  0.6111111111111112 0.1 0  0.6666666666666666 0.1 0  0.7222222222222222 0.1 0  0.7777777777777778 0.1 0  0.8333333333333334 0.1 0  0.8888888888888888 0.1 0  0.9444444444444444 0.1 0  1 0.1 0  0 0 0.01  0.05555555555555555 0 0.01  0.1111111111111111 0 0.01  0.1666666666666667 0 0.01  0.2222222222222222 0 0.01  0.2777777777777778 0 0.01  0.3333333333333333 0 0.01  0.3888888888888889 0 0.01  0.4444444444444444 0 0.01  0.5 0 0.01  0.5555555555555556 0 0.01  0.6111111111111112 0 0.01  0.6666666666666666 0 0.01  0.7222222222222222 0 0.01  0.7777777777777778 0 0.01  0.8333333333333334 0 0.01  0.8888888888888888 0 0.01  0.9444444444444444 0 0.01  1 0 0.01  0 0.01428571428571429 0.01  0.05555555555555555 0.01428571428571429 0.01  0.1111111111111111 0.01428571428571429 0.01  0.1666666666666667 0.01428571428571429 0.01  0.2222222222222222 0.01428571428571429 0.01  0.2777777777777778 0.01428571428571429 0.01  0.3333333333333333 0.01428571428571429 0.01  0.3888888888888889 0.01428571428571429 0.01  0.4444444444444444 0.01428571428571429 0.01  0.5 0.01428571428571429 0.01  0.5555555555555556 0.01428571428571429 0.01  0.6111111111111112 0.01428571428571429 0.01  0.6666666666666666 0.01428571428571429 0.01  0.7222222222222222 0.01428571428571429 0.01  0.7777777777777778 0.01428571428571429 0.01  0.8333333333333334 0.01428571428571429 0.01  0.8888888888888888 0.01428571428571429 0.01  0.9444444444444444 0.01428571428571429 0.01  1 0.01428571428571429 0.01  0 0.02857142857142857 0.01  0.05555555555555555 0.02857142857142857 0.01  0.1111111111111111 0.02857142857142857 0.01  0.1666666666666667 0.02857142857142857 0.01  0.2222222222222222 0.02857142857142857 0.01  0.2777777777777778 0.02857142857142857 0.01  0.3333333333333333 0.02857142857142857 0.01  0.3888888888888889 0.02857142857142857 0.01  0.4444444444444444 0.02857142857142857 0.01  0.5 0.02857142857142857 0.01  0.5555555555555556 0.02857142857142857 0.01  0.6111111111111112 0.02857142857142857 0.01  0.6666666666666666 0.02857142857142857 0.01  0.7222222222222222 0.02857142857142857 0.01  0.7777777777777778 0.02857142857142857 0.01  0.8333333333333334 0.02857142857142857 0.01  0.8888888888888888 0.02857142857142857 0.01  0.9444444444444444 0.02857142857142857 0.01  1 0.02857142857142857 0.01  0 0.04285714285714286 0.01  0.05555555555555555 0.04285714285714286 0.01  0.1111111111111111 0.04285714285714286 0.01  0.1666666666666667 0.04285714285714286 0.01  0.2222222222222222 0.04285714285714286 0.01  0.2777777777777778 0.04285714285714286 0.01  0.3333333333333333 0.04285714285714286 0.01  0.3888888888888889 0.04285714285714286 0.01  0.4444444444444444 0.04285714285714286 0.01  0.5 0.04285714285714286 0.01  0.5555555555555556 0.04285714285714286 0.01  0.6111111111111112 0.04285714285714286 0.01  0.6666666666666666 0.04285714285714286 0.01  0.7222222222222222 0.04285714285714286 0.01  0.7777777777777778 0.04285714285714286 0.01  0.8333333333333334 0.04285714285714286 0.01  0.8888888888888888 0.04285714285714286 0.01  0.9444444444444444 0.04285714285714286 0.01  1 0.04285714285714286 0.01  0 0.05714285714285715 0.01  0.05555555555555555 0.05714285714285715 0.01  0.1111111111111111 0.05714285714285715 0.01  0.1666666666666667 0.05714285714285715 0.01  0.2222222222222222 0.05714285714285715 0.01  0.2777777777777778 0.05714285714285715 0.01  0.3333333333333333 0.05714285714285715 0.01  0.3888888888888889 0.05714285714285715 0.01  0.4444444444444444 0.05714285714285715 0.01  0.5 0.05714285714285715 0.01  0.5555555555555556 0.05714285714285715 0.01  0.6111111111111112 0.05714285714285715 0.01  0.6666666666666666 0.05714285714285715 0.01  0.7222222222222222 0.05714285714285715 0.01  0.7777777777777778 0.05714285714285715 0.01  0.8333333333333334 0.05714285714285715 0.01  0.8888888888888888 0.05714285714285715 0.01  0.9444444444444444 0.05714285714285715 0.01  1 0.05714285714285715 0.01  0 0.07142857142857142 0.01  0.05555555555555555 0.07142857142857142 0.01  0.1111111111111111 0.07142857142857142 0.01  0.1666666666666667 0.07142857142857142 0.01  0.2222222222222222 0.07142857142857142 0.01  0.2777777777777778 0.07142857142857142 0.01  0.3333333333333333 0.07142857142857142 0.01  0.3888888888888889 0.07142857142857142 0.01  0.4444444444444444 0.07142857142857142 0.01  0.5 0.07142857142857142 0.01  0.5555555555555556 0.07142857142857142 0.01  0.6111111111111112 0.07142857142857142 0.01  0.6666666666666666 0.07142857142857142 0.01  0.7222222222222222 0.07142857142857142 0.01  0.7777777777777778 0.07142857142857142 0.01  0.8333333333333334 0.07142857142857142 0.01  0.8888888888888888 0.07142857142857142 0.01  
[...]
<PointData  Vectors="f_33"> 
<DataArray  type="Float64"  Name="f_33"  NumberOfComponents="3" format="ascii">0.0000000000000000e+00 0.0000000000000000e+00 0.0000000000000000e+00  -2.2657615822684880e-03 -1.1088841483782608e-04 -3.3202970881690622e-03  -4.2242629642729543e-03 2.1555036690459883e-04 -1.2735447156788905e-02  -6.0099184288758978e-03 7.4143978260159398e-04 -2.7811960661720828e-02  -7.6261113129674684e-03 1.4230090341715838e-03 -4.8009038067030864e-02  -9.0756665786575659e-03 2.2351893464002985e-03 -7.2814718089109082e-02  -1.0360853211975463e-02 3.1598644541155200e-03 -1.0172808465981853e-01  -1.1485017176970685e-02 4.1814660226703682e-03 -1.3425852252162640e-01  -1.2452832673807925e-02 5.2856220918802493e-03 -1.6992811973079133e-01  -1.3270377897410408e-02 6.4587620591499825e-03 -2.0827517852786695e-01  -1.3945214532715543e-02 7.6880611687716758e-03 -2.4885831161639624e-01  -1.4486469710130857e-02 8.9615111660078395e-03 -2.9126093144369014e-01  -1.4904909335635735e-02 1.0268040853514186e-02 -3.3509602973145952e-01  -1.5212998546589987e-02 1.1597658183360848e-02 -3.8001117868730055e-01  -1.5424948714086525e-02 1.2941603169110007e-02 -4.2569370125270112e-01  -1.5556752866864617e-02 1.4292508282878032e-02 -4.7187596713419927e-01  -1.5626222622728683e-02 1.5644565241115110e-02 -5.1834078110903747e-01  -1.5653067129296976e-02 1.6993688719103488e-02 -5.6492689252075157e-01  -1.5658808053652717e-02 1.8337802341223185e-02 -6.1153522107309766e-01  0.0000000000000000e+00 0.0000000000000000e+00 0.0000000000000000e+00  -2.1748240758740593e-03 2.9091630092712196e-07 -3.4187684389652604e-03  -4.1920549066736786e-03 3.1389957767942060e-04 -1.2805457176931118e-02  -6.0289114956812067e-03 8.3036495038959406e-04 -2.7813070229792913e-02  -7.6926133399244758e-03 1.5028574892072934e-03 -4.7934079184703327e-02  -9.1857077547414599e-03 2.3061235518563759e-03 -7.2665624847399676e-02  -1.0510476476614770e-02 3.2220661555467148e-03 -1.0150983241136960e-01  -1.1670300436280479e-02 4.2351820970896702e-03 -1.3397717141588161e-01  -1.2669889213476827e-02 5.3311738531713476e-03 -1.6959011966329415e-01  -1.3515367561907445e-02 6.4965500220118223e-03 -2.0788708848983231e-01  -1.4214365360932376e-02 7.7185696222812862e-03 -2.4842666539967032e-01  -1.4776105781691850e-02 8.9853123079817587e-03 -2.9079215478536397e-01  -1.5211482497067429e-02 1.0285798199186265e-02 -3.3459637403376485e-01  -1.5533122927566922e-02 1.1610129148778917e-02 -3.7948665845517293e-01  -1.5755437404972355e-02 1.2949640711173121e-02 -4.2515003035043242e-01  -1.5894655418466446e-02 1.4297061400753205e-02 -4.7131849088677868e-01  -1.5968857588460020e-02 1.5646678262877186e-02 -5.1777439840693795e-01  -1.5998063905849309e-02 1.6994489148044842e-02 -5.6435594248979359e-01  -1.6004577748498557e-02 1.8338214632262928e-02 -6.1096321122822361e-01  0.0000000000000000e+00 0.0000000000000000e+00 0.0000000000000000e+00  -2.1801049943060346e-03 8.5519811391299681e-05 -3.4585352508686037e-03  -4.2295044916261472e-03 4.1081620779231492e-04 -1.2807861678845211e-02  -6.1075113521148507e-03 9.2416511870929219e-04 -2.7749214882517925e-02  -7.8112570337572924e-03 1.5892800890612005e-03 -4.7799761992375824e-02  -9.3413308087278470e-03 2.3837994968378914e-03 -7.2463395202083572e-02  -1.0699552226119543e-02 3.2906650209183850e-03 -1.0124472831515803e-01  -1.1889206582882787e-02 4.2947752259497179e-03 -1.3365513983062566e-01  -1.2915025368940550e-02 5.3820245823293445e-03 -1.6921740603398952e-01  -1.3783210977571495e-02 6.5390459374009471e-03 -2.0746997799338557e-01  -1.4501511330043666e-02 7.7532017489107784e-03 -2.4797135339079182e-01  -1.5079304136182081e-02 9.0126701753491644e-03 -2.9030466369941671e-01  -1.5527673708472290e-02 1.0306570087149389e-02 -3.3408248557581777e-01  -1.5859474993445838e-02 1.1625103644925666e-02 -3.7895184948718008e-01  -1.6089383747020333e-02 1.2959707931129036e-02 -4.2459940821246045e-01  -1.6233932801526414e-02 1.4303212689183543e-02 -4.7075672616739694e-01  -1.6311538312903884e-02 1.5650004325245909e-02 -5.1720565218851278e-01  -1.6342572772624568e-02 1.6996179080762955e-02 -5.6378377602472540e-01  -1.6349758908636956e-02 1.8339409679683900e-02 -6.1039039275169149e-01  0.0000000000000000e+00 0.0000000000000000e+00 0.0000000000000000e+00  -2.2008428670105256e-03 1.5982779598715650e-04 -3.4488270470958240e-03  -4.2826695616707535e-03 5.0531232199629904e-04 -1.2740230406520373e-02  -6.2007481697352231e-03 1.0204511409744352e-03 -2.7614704757694449e-02  -7.9432982447584163e-03 1.6798222824067073e-03 -4.7599317684123434e-02  -9.5089541478799271e-03 2.4659311673658527e-03 -7.2201303613134246e-02  -1.0899185168233898e-02 3.3635586899037496e-03 -1.0092652676161699e-01  -1.2117240672744500e-02 4.3583203231506102e-03 -1.3328681520948704e-01  -1.3167903344701842e-02 5.4364229372547250e-03 -1.6880504314267231e-01  -1.4057472492540080e-02 6.5846708106041610e-03 -2.0701958704797765e-01  -1.4793830390068043e-02 7.7905499867276361e-03 -2.4748876910808645e-01  -1.5386524958970707e-02 9.0423472730461595e-03 -2.8979547070417278e-01  -1.5846846911809171e-02 1.0329286799316701e-02 -3.3355195214254268e-01  -1.6187894744199825e-02 1.1641676292775542e-02 -3.7840486285343050e-01  -1.6424625960215856e-02 1.2971059222340540e-02 -4.2404040914933078e-01  -1.6573893900464542e-02 1.4310371052379967e-02 -4.7018964222042875e-01  -1.6654469275398678e-02 1.5654101176051847e-02 -5.1663382897669419e-01  -1.6687084769223197e-02 1.6998452387955030e-02 -5.6320989741626115e-01  -1.6694831382257247e-02 1.8341203468536807e-02 -6.0981630447443802e-01  0.0000000000000000e+00 0.0000000000000000e+00 0.0000000000000000e+00  -2.2173485667186456e-03 2.3328145322966108e-04 -3.3935292857461088e-03  -4.3369163092675383e-03 6.0026258013144772e-04 -1.2605863963971519e-02  -6.2972267923408357e-03 1.1190119075821412e-03 -2.7409840975793617e-02  -8.0791817903422339e-03 1.7734578743986706e-03 -4.7331910884404756e-02  -9.6804163641045181e-03 2.5513067654377268e-03 -7.1878124194145313e-02  -1.1102435321817738e-02 3.4395466021366170e-03 -1.0055392356920791e-01  -1.2348590141800215e-02 4.4246902706165840e-03 -1.3287094185099554e-01  -1.3423764658681173e-02 5.4933346508221339e-03 -1.6835187216310149e-01  -1.4334375003500394e-02 6.6324882295936936e-03 -2.0653487043425062e-01  -1.5088446921878518e-02 7.8297752817654016e-03 -2.4697798476691293e-01  -1.5695703684234827e-02 9.0735988870619816e-03 -2.8926376368016665e-01  -1.6167646144854542e-02 1.0353293446367807e-02 -3.3300407267453119e-01  -1.6517619683880550e-02 1.1659276382731553e-02 -3.7784510210184513e-01  -1.6760866895847652e-02 1.2983201533898005e-02 -4.2347253325877893e-01  -1.6914565832071963e-02 1.4318114270622951e-02 -4.6961682572732150e-01  -1.6997850287587133e-02 1.5658610624338765e-02 -5.1605858902260626e-01  -1.7031826500474620e-02 1.7001006244688130e-02 -5.6263402073893598e-01  -1.7039981554545156e-02 1.8343310101142457e-02 -6.0924071861704487e-01  0.0000000000000000e+00 0.0000000000000000e+00 0.0000000000000000e+00  -2.2225772356154502e-03 3.1446122441730758e-04 -3.2905771596488959e-03  -4.3853136478988345e-03 7.0031451575912774e-04 -1.2404328260736340e-02  -6.3908749308197160e-03 1.2215411872959258e-03 -2.7134398879007458e-02  -8.2135167844625441e-03 1.8705988187414334e-03 -4.6997093777540792e-02  -9.8509644657214443e-03 2.6398687957587463e-03 -7.1493280728485653e-02  -1.1305174344282611e-02 3.5184014225842354e-03 -1.0012631791925238e-01  -1.2579731736947127e-02 4.4935955843084371e-03 -1.3240694760006216e-01  -1.3679665102926635e-02 5.5524473953572169e-03 -1.6785737259226405e-01  -1.4611521598610462e-02 6.6821775414187571e-03 -2.0601536805644288e-01  -1.5383473595838628e-02 7.8705540834117932e-03 -2.4643860322114766e-01  -1.6005418495015827e-02 9.1061006644633357e-03 -2.8870920817273960e-01  -1.6489064377160346e-02 1.0378265781194530e-02 -3.3243857369341689e-01  -1.6847999984789079e-02 1.1677580305021149e-02 -3.7727235202856618e-01  -1.7097749319865612e-02 1.2995812414595832e-02 -4.2289561994038871e-01  -1.7255811861525250e-02 1.4326122133818984e-02 -4.6903816543105570e-01  -1.7341686980398729e-02 1.5663217379434956e-02 -5.1547986176532390e-01  -1.7376874535207646e-02 1.7003532941197216e-02 -5.6205610439537079e-01  -1.7385301319913459e-02 1.8345401513647514e-02 -6.0866362519955031e-01  0.0000000000000000e+00 0.0000000000000000e+00 0.0000000000000000e+00  -2.2065036841398644e-03 4.1083294279604357e-04 -3.1300937247215645e-03  -4.4161593292329372e-03 8.0987417232313073e-04 -1.2130173259696887e-02  -6.4698428290581129e-03 1.3301697435854822e-03 -2.6785642294833281e-02  -8.3350133604274002e-03 1.9721808369378454e-03 -4.6593069682024139e-02  -1.0010262534271355e-02 2.7320219976752456e-03 -7.1045388545255841e-02  -1.1498162837946063e-02 3.6002919886112144e-03 -9.9642581737740613e-02  -1.2802557596295800e-02 4.5650882411148114e-03 -1.3189390944884483e-01  -1.3928617415719833e-02 5.6137431837342613e-03 -1.6732080471260888e-01  -1.4883011046829098e-02 6.7336696857251349e-03 -2.0546051009961341e-01  -1.5674044821796240e-02 7.9127746263807173e-03 -2.4587021276848256e-01  -1.6311775797137048e-02 9.1397027890953580e-03 -2.8813153807646269e-01  -1.6808103788638267e-02 1.0404019500976349e-02 -3.3185532059089928e-01  -1.7176844821600930e-02 1.1696372745820579e-02 -3.7668659347054184e-01  -1.7433787873417348e-02 1.3008649298822532e-02 -4.2230974720985498e-01  -1.7596736984194179e-02 1.4334129206561923e-02 -4.6845381531240921e-01  -1.7685543963214621e-02 1.5667639731775210e-02 -5.1489785043363023e-01  -1.7722119341680668e-02 1.7005736106603952e-02 -5.6147636851257199e-01  -1.7730824465406986e-02 1.8347144682348358e-02 -6.0808523433426898e-01  0.0000000000000000e+00 0.0000000000000000e+00 0.0000000000000000e+00  -2.1252565969440132e-03 5.1650930870783020e-04 -2.9073087442900900e-03  -4.3800945361424110e-03 9.2326087544571740e-04 -1.1783641996154958e-02  -6.4856297176737986e-03 1.4393517882106994e-03 -2.6366715127560923e-02  -8.3981514934057810e-03 2.0728816463540254e-03 -4.6123861480673913e-02  -1.0116814052175273e-02 2.8228328244876712e-03 -7.0538615441165395e-02  -1.1644299609039040e-02 3.6807753962015172e-03 -9.9106738506811884e-02  -1.2984440002799649e-02 4.6352561433002162e-03 -1.3133559445893034e-01  -1.4142410326153605e-02 5.6738446489856898e-03 -1.6674563496676081e-01  -1.5124914951627336e-02 6.7841068501541656e-03 -2.0487344480195052e-01  -1.5940325710916664e-02 7.9540723278639213e-03 -2.4527563697366384e-01  -1.6598795639028548e-02 9.1724996297496350e-03 -2.8753325125507667e-01  -1.7112352937839498e-02 1.0429066837309172e-02 -3.3125648797437823e-01  -1.7494976524737096e-02 1.1714536217378595e-02 -3.7608968308949148e-01  -1.7762654668882258e-02 1.3020910890568473e-02 -4.2171646180177474e-01  -1.7933429137519750e-02 1.4341589528437637e-02 -4.6786502279586284e-01  -1.8027431579573136e-02 1.5671523256437222e-02 -5.1431351451915985e-01  -1.8066954824719383e-02 1.7007373417337386e-02 -5.6089545240153715e-01  -1.8076604211761261e-02 1.8348319489473040e-02 -6.0750583528791757e-01  0.0000000000000000e+00 0.0000000000000000e+00 0.0000000000000000e+00  -1.0218127406241724e-03 -2.3021863686789753e-05 -3.2246232985894230e-03  -1.9350632749550814e-03 2.8166252414425753e-04 -1.2647057170369260e-02  -2.7629947773503720e-03 7.5634914707587331e-04 -2.7730798492300184e-02  -3.5129299258011724e-03 1.3826509315918228e-03 -4.7935382842924479e-02  -4.1863814197308650e-03 2.1413359795931773e-03 -7.2748628873365459e-02  -4.7841772806783700e-03 3.0161712304945286e-03 -1.0166951039536161e-01  -5.3077166733841536e-03 3.9922693314645812e-03 -1.3420732508411512e-01  -5.7590704763159960e-03 5.0555103304152837e-03 -1.6988408815794284e-01  -6.1409801690416451e-03 6.1924005626427178e-03 -2.0823803307889943e-01  -6.4568774726814710e-03 7.3901064798343246e-03 -2.4882770265315146e-01  -6.7109160181885461e-03 8.6365564547228185e-03 -2.9123643662898796e-01  -6.9080033030233219e-03 9.9205710550525784e-03 -3.3507715105047542e-01  -7.0538281855386858e-03 1.1232006941873873e-02 -3.7999733981814987e-01  -7.1548826406386450e-03 1.2561908535033077e-02 -4.2568424540239758e-01  -7.2184785654060358e-03 1.3902665156994100e-02 -4.7187015523920500e-01  -7.2527657443364878e-03 1.5248170068878172e-02 -5.1833778915900408e-01  -7.2667654712542020e-03 1.6593957924560684e-02 -5.6492580245550883e-01  -7.2701921847779906e-03 1.7937422848933581e-02 -6.1153474071825842e-01  0.0000000000000000e+00 0.0000000000000000e+00 0.0000000000000000e+00  -1.0148245696528458e-03 4.5246872728378884e-05 -3.3129680700386497e-03  -1.9879376013793421e-03 3.3674418286972591e-04 -1.2715873217954424e-02  -2.8596928030118875e-03 8.0634062095941573e-04 -2.7731587643914979e-02  -3.6496144328437819e-03 1.4276888878079713e-03 -4.7860372415511603e-02  -4.3590269341451078e-03 2.1814616187886431e-03 -7.2599548696092503e-02  -4.9889102924380105e-03 3.0514530758211440e-03 -1.0145127092074002e-01  -5.5407869696333257e-03 4.0228260460714567e-03 -1.3392596540969287e-01  -6.0168354542169018e-03 5.0815078421609121e-03 -1.6954605312127816e-01  -6.4199137332737362e-03 6.2140507969516007e-03 -2.0784988294065929e-01  -6.7535935975860566e-03 7.4076683358714288e-03 -2.4839597522182144e-01  -7.0221994813059333e-03 8.6503375523450526e-03 -2.9076756305543616e-01  -7.2308441907989705e-03 9.9309294744401363e-03 -3.3457738903323497e-01  -7.3854587399383676e-03 1.1239352667319477e-02 -3.7947271084378370e-01  -7.4928157461730321e-03 1.2566704497146218e-02 -4.2514047094620894e-01  -7.5605467489741410e-03 1.3905427980804075e-02 -4.7131258900618156e-01  -7.5971572219823667e-03 1.5249471382523425e-02 -5.1777134001042957e-01  -7.6120710064544479e-03 1.6594424838538027e-02 -5.6435481897450013e-01  -7.6157720418689049e-03 1.7937590749608906e-02 -6.1096283598627232e-01  0.0000000000000000e+00 0.0000000000000000e+00 0.0000000000000000e+00  -1.0364463472783314e-03 9.1165999584926183e-05 -3.3487025003949488e-03  -2.0484576441093774e-03 3.8659764540632281e-04 -1.2713610271764377e-02  -2.9619171654371211e-03 8.5422163972139961e-04 -2.7665185431960140e-02  -3.7903911766015456e-03 1.4716416328425298e-03 -4.7724337874997302e-02  -4.5347778050057472e-03 2.2209147278117983e-03 -7.2395995741831615e-02  -5.1959545775244016e-03 3.0862761182327229e-03 -1.0118508091305627e-01  -5.7754777775354616e-03 4.0530670700793421e-03 -1.3360302764590123e-01  -6.2756064660227677e-03 5.1073037103941009e-03 -1.6917258890527170e-01  -6.6993106052700771e-03 6.2355984079886214e-03 -2.0743216434796116e-01  -7.0503060347374205e-03 7.4252159939856739e-03 -2.4794018758402767e-01  -7.3330952615177913e-03 8.6641831516921838e-03 -2.9027971893563426e-01  -7.5530049106289103e-03 9.9414208811025723e-03 -3.3406325929740138e-01  -7.7162170485721559e-03 1.1246888622262852e-02 -3.7893776009490221e-01  -7.8297937834279196e-03 1.2571735316208310e-02 -4.2458979262805091e-01  -7.9016947531469536e-03 1.3908455634625727e-02 -4.7075083807043516e-01  -7.9407879705385188e-03 1.5251050208426476e-02 -5.1720266050248564e-01  -7.9568885203329352e-03 1.6595169005277254e-02 -5.6378275468832595e-01  -7.9610080260708611e-03 1.7938098154164913e-02 -6.1039016537905610e-01  0.0000000000000000e+00 0.0000000000000000e+00 0.0000000000000000e+00  -1.0662409741579793e-03 1.3026504209781995e-04 -3.3358122634439217e-03  -2.1159389916936351e-03 4.3394910395456088e-04 -1.2642346966550694e-02  -3.0700407720594364e-03 9.0209743505586940e-04 -2.7527994585473364e-02  -3.9364108303116610e-03 1.5166155596699710e-03 -4.7521885473616042e-02  -4.7151340979376018e-03 2.2616720911964668e-03 -7.2132288208318310e-02  -5.4069714730008650e-03 3.1224207252511108e-03 -1.0086552532655479e-01  -6.0135271808194951e-03 4.0845534312575127e-03 -1.3323355572508214e-01  -6.5371496336830712e-03 5.1342368549481335e-03 -1.6875926051727236e-01  -6.9809280357191698e-03 6.2581661324938699e-03 -2.0698097540392529e-01  -7.3487292346066614e-03 7.4436665676910199e-03 -2.4745696141090548e-01  -7.6452408202316345e-03 8.6788185508848287e-03 -2.8977002872663560e-01  -7.8760103634088995e-03 9.9525953596898021e-03 -3.3353236070065001e-01  -8.0474782008225828e-03 1.1255008957695175e-02 -3.7839052605859846e-01  -8.1670032107841288e-03 1.2577261217009399e-02 -4.2403064776076865e-01  -8.2428808679212498e-03 1.3911899309549293e-02 -4.7018369179048330e-01  -8.2843505444494866e-03 1.5252975843365404e-02 -5.1663083891676820e-01  -8.3016158309660356e-03 1.6596204036758093e-02 -5.6320892406470602e-01  -8.3061292332462996e-03 1.7938945937708756e-02 -6.0981617090350704e-01  0.0000000000000000e+00 0.0000000000000000e+00 0.0000000000000000e+00  -1.0945829938009339e-03 1.6967300429541853e-04 -3.2789691057800332e-03  -2.1845564950960742e-03 4.8208682531028827e-04 -1.2505489780784943e-02  -3.1799292709957200e-03 9.5171790221154563e-04 -2.7320758180289180e-02  -4.0843642950124069e-03 1.5637186686852721e-03 -4.7252499239838090e-02  -4.8973491991033489e-03 2.3045888994540765e-03 -7.1807442477441988e-02  -5.6196974466158527e-03 3.1605909591205560e-03 -1.0049149526217491e-01  -6.2531117499239905e-03 4.1178691699272326e-03 -1.3281645725921717e-01  -6.8000471960580205e-03 5.1627833511123516e-03 -1.6830504680834435e-01  -7.2637195304575651e-03 6.2821292969347520e-03 -2.0649538586140334e-01  -7.6481504823731963e-03 7.4633009905203662e-03 -2.4694546300261641e-01  -7.9582152934512731e-03 8.6944370808334295e-03 -2.8923775506151073e-01  -8.1996845796632363e-03 9.9645663397937376e-03 -3.3298404921228947e-01  -8.3792589031174650e-03 1.1263756022494652e-02 -3.7783045337037102e-01  -8.5045958715950377e-03 1.2583263593801372e-02 -4.2346256359685680e-01  -8.5843294116080462e-03 1.3915691267198401e-02 -4.6961075228763460e-01  -8.6280763421824544e-03 1.5255144915613864e-02 -5.1605554126950137e-01  -8.6464353632460487e-03 1.6597403625642163e-02 -5.6263303789895036e-01  -8.6512734072263231e-03 1.7939987055258452e-02 -6.0924061493891690e-01  0.0000000000000000e+00 0.0000000000000000e+00 0.0000000000000000e+00  -1.1176743129919426e-03 2.1481120903833582e-04 -3.1769005987014403e-03  -2.2503985854659555e-03 5.3420593934296588e-04 -1.2303020123507721e-02  -3.2883239165072803e-03 1.0047080447819115e-03 -2.7043860372465842e-02  -4.2313577869405403e-03 1.6138628893137301e-03 -4.6916267450762064e-02  -5.0788797367098387e-03 2.3502749724254274e-03 -7.1421322820443930e-02  -5.8319391744655552e-03 3.2012483808935245e-03 -1.0006275751983756e-01  -6.4923805869724115e-03 4.1533808798329764e-03 -1.3235146847841209e-01  -7.0627760497053620e-03 5.1932345958218369e-03 -1.6780968376265004e-01  -7.5464703543047171e-03 6.3077125432869658e-03 -2.0597514493146274e-01  -7.9476398701652188e-03 7.4842819090236998e-03 -2.4640546129791402e-01  -8.2713460631835805e-03 8.7111432098408749e-03 -2.8868269034929583e-01  -8.5235806673521226e-03 9.9773840124288225e-03 -3.3241814336502296e-01  -8.7113023551478631e-03 1.1273130123780659e-02 -3.7725738884901033e-01  -8.8424653015953328e-03 1.2589697992587256e-02 -4.2288541697997489e-01  -8.9260401187514580e-03 1.3919748620227117e-02 -4.6903192714219888e-01  -8.9720240589404969e-03 1.5257444168537906e-02 -5.1547670325220096e-01  -8.9914264141956624e-03 1.6598630440667641e-02 -5.6205505312415560e-01  -8.9965193631823988e-03 1.7941047313797469e-02 -6.0866348193944619e-01  0.0000000000000000e+00 0.0000000000000000e+00 0.0000000000000000e+00  -1.1326932916019014e-03 2.7226869504155029e-04 -3.0207986927862792e-03  -2.3092323981892750e-03 5.9462730988816973e-04 -1.2030212735761903e-02  -3.3906826454751155e-03 1.0639278435789665e-03 -2.6695336743891327e-02  -4.3729415279086239e-03 1.6690917807164070e-03 -4.6512107748235026e-02  -5.2556052571221699e-03 2.4003215448261928e-03 -7.0973157825558353e-02  -6.0399968735440910e-03 3.2456975084268909e-03 -9.9578697316054579e-02  -6.7280818702328731e-03 4.1921746025704032e-03 -1.3183808804206856e-01  -7.3225329975492824e-03 5.2264881203536702e-03 -1.6727276940475588e-01  -7.8268139095444313e-03 6.3356413176521766e-03 -2.0541994380943088e-01  -8.2452477561111778e-03 7.5071750703458668e-03 -