<?xml version="1.0"?>
<VTKFile type="UnstructuredGrid"  version="0.1"  >
<UnstructuredGrid>
<Piece  NumberOfPoints="760" NumberOfCells="3024">
<Points>
<DataArray  type="Float64"  NumberOfComponents="3"  format="ascii">0 0 0  0.05555555555555555 0 0  0.1111111111111111 0 0  0.1666666666666667 0 0  0.2222222222222222 0 0  0.2777777777777778 0 0  0.3333333333333333 0 0  0.3888888888888889 0 0  0.4444444444444444 0 0  0.5 0 0  0.5555555555555556 0 0  0.6111111111111112 0 0  0.6666666666666666 0 0  0.7222222222222222 0 0  0.7777777777777778 0 0  0.8333333333333334 0 0  0.8888888888888888 0 0  0.9444444444444444 0 0  1 0 0  0 0.01428571428571429 0  0.05555555555555555 0.01428571428571429 0  0.1111111111111111 0.01428571428571429 0  0.1666666666666667 0.01428571428571429 0  0.2222222222222222 0.01428571428571429 0  0.2777777777777778 0.01428571428571429 0  0.3333333333333333 0.01428571428571429 0  0.3888888888888889 0.01428571428571429 0  0.4444444444444444 0.01428571428571429 0  0.5 0.01428571428571429 0  0.5555555555555556 0.01428571428571429 0  0.6111111111111112 0.01428571428571429 0  0.6666666666666666 0.01428571428571429 0  0.7222222222222222 0.01428571428571429 0  0.7777777777777778 0.01428571428571429 0  0.8333333333333334 0.01428571428571429 0  0.8888888888888888 0.01428571428571429 0  0.9444444444444444 0.01428571428571429 0  1 0.01428571428571429 0  0 0.02857142857142857 0  0.05555555555555555 0.02857142857142857 0  0.1111111111111111 0.02857142857142857 0  0.1666666666666667 0.02857142857142857 0  0.2222222222222222 0.02857142857142857 0  0.2777777777777778 0.02857142857142857 0  0.3333333333333333 0.02857142857142857 0  0.3888888888888889 0.02857142857142857 0  0.4444444444444444 0.02857142857142857 0  0.5 0.02857142857142857 0  0.5555555555555556 0.02857142857142857 0  0.6111111111111112 0.02857142857142857 0  0.6666666666666666 0.02857142857142857 0  0.7222222222222222 0.02857142857142857 0  0.7777777777777778 0.02857142857142857 0  0.8333333333333334 0.02857142857142857 0  0.8888888888888888 0.02857142857142857 0  0.9444444444444444 0.02857142857142857 0  1 0.02857142857142857 0  0 0.04285714285714286 0  0.05555555555555555 0.04285714285714286 0  0.1111111111111111 0.04285714285714286 0  0.1666666666666667 0.04285714285714286 0  0.2222222222222222 0.04285714285714286 0  0.2777777777777778 0.04285714285714286 0  0.3333333333333333 0.04285714285714286 0  0.3888888888888889 0.04285714285714286 0  0.4444444444444444 0.04285714285714286 0  0.5 0.04285714285714286 0  0.5555555555555556 0.04285714285714286 0  0.6111111111111112 0.04285714285714286 0  0.6666666666666666 0.04285714285714286 0  0.7222222222222222 0.04285714285714286 0  0.7777777777777778 0.04285714285714286 0  0.8333333333333334 0.04285714285714286 0  0.8888888888888888 0.04285714285714286 0  0.9444444444444444 0.04285714285714286 0  1 0.04285714285714286 0  0 0.05714285714285715 0  0.05555555555555555 0.05714285714285715 0  0.1111111111111111 0.05714285714285715 0  0.1666666666666667 0.05714285714285715 0  0.2222222222222222 0.05714285714285715 0  0.2777777777777778 0.05714285714285715 0  0.3333333333333333 0.05714285714285715 0  0.3888888888888889 0.05714285714285715 0  0.4444444444444444 0.05714285714285715 0  0.5 0.05714285714285715 0  0.5555555555555556 0.05714285714285715 0  0.6111111111111112 0.05714285714285715 0  0.6666666666666666 0.05714285714285715 0  0.7222222222222222 0.05714285714285715 0  0.7777777777777778 0.05714285714285715 0  0.8333333333333334 0.05714285714285715 0  0.8888888888888888 0.05714285714285715 0  0.9444444444444444 0.05714285714285715 0  1 0.05714285714285715 0  0 0.07142857142857142 0  0.05555555555555555 0.07142857142857142 0  0.1111111111111111 0.07142857142857142 0  0.1666666666666667 0.07142857142857142 0  0.2222222222222222 0.07142857142857142 0  0.2777777777777778 0.07142857142857142 0  0.3333333333333333 0.07142857142857142 0  0.3888888888888889 0.07142857142857142 0  0.4444444444444444 0.07142857142857142 0  0.5 0.07142857142857142 0  0.5555555555555556 0.07142857142857142 0  0.6111111111111112 0.07142857142857142 0  0.6666666666666666 0.07142857142857142 0  0.7222222222222222 0.07142857142857142 0  0.7777777777777778 0.07142857142857142 0  0.8333333333333334 0.07142857142857142 0  0.8888888888888888 0.07142857142857142 0  0.9444444444444444 0.07142857142857142 0  1 0.07142857142857142 0  0 0.08571428571428573 0  0.05555555555555555 0.08571428571428573 0  0.1111111111111111 0.08571428571428573 0  0.1666666666666667 0.08571428571428573 0  0.2222222222222222 0.08571428571428573 0  0.2777777777777778 0.08571428571428573 0  0.3333333333333333 0.08571428571428573 0  0.3888888888888889 0.08571428571428573 0  0.4444444444444444 0.08571428571428573 0  0.5 0.08571428571428573 0  0.5555555555555556 0.08571428571428573 0  0.6111111111111112 0.08571428571428573 0  0.6666666666666666 0.08571428571428573 0  0.7222222222222222 0.08571428571428573 0  0.7777777777777778 0.08571428571428573 0  0.8333333333333334 0.08571428571428573 0  0.8888888888888888 0.08571428571428573 0  0.9444444444444444 0.08571428571428573 0  1 0.08571428571428573 0  0 0.1 0  0.05555555555555555 0.1 0  0.1111111111111111 0.1 0  0.1666666666666667 0.1 0  0.2222222222222222 0.1 0  0.2777777777777778 0.1 0  0.3333333333333333 0.1 0  0.3888888888888889 0.1 0  0.4444444444444444 0.1 0  0.5 0.1 0  0.5555555555555556 0.1 0  0.6111111111111112 0.1 0  0.6666666666666666 0.1 0  0.7222222222222222 0.1 0  0.7777777777777778 0.1 0  0.8333333333333334 0.1 0  0.8888888888888888 0.1 0  0.9444444444444444 0.1 0  1 0.1 0  0 0 0.01  0.05555555555555555 0 0.01  0.1111111111111111 0 0.01  0.1666666666666667 0 0.01  0.2222222222222222 0 0.01  0.2777777777777778 0 0.01  0.3333333333333333 0 0.01  0.3888888888888889 0 0.01  0.4444444444444444 0 0.01  0.5 0 0.01  0.5555555555555556 0 0.01  0.6111111111111112 0 0.01  0.6666666666666666 0 0.01  0.7222222222222222 0 0.01  0.7777777777777778 0 0.01  0.8333333333333334 0 0.01  0.8888888888888888 0 0.01  0.9444444444444444 0 0.01  1 0 0.01  0 0.01428571428571429 0.01  0.05555555555555555 0.01428571428571429 0.01  0.1111111111111111 0.01428571428571429 0.01  0.1666666666666667 0.01428571428571429 0.01  0.2222222222222222 0.01428571428571429 0.01  0.2777777777777778 0.01428571428571429 0.01  0.3333333333333333 0.01428571428571429 0.01  0.3888888888888889 0.01428571428571429 0.01  0.4444444444444444 0.01428571428571429 0.01  0.5 0.01428571428571429 0.01  0.5555555555555556 0.01428571428571429 0.01  0.6111111111111112 0.01428571428571429 0.01  0.6666666666666666 0.01428571428571429 0.01  0.7222222222222222 0.01428571428571429 0.01  0.7777777777777778 0.01428571428571429 0.01  0.8333333333333334 0.01428571428571429 0.01  0.8888888888888888 0.01428571428571429 0.01  0.9444444444444444 0.01428571428571429 0.01  1 0.01428571428571429 0.01  0 0.02857142857142857 0.01  0.05555555555555555 0.02857142857142857 0.01  0.1111111111111111 0.02857142857142857 0.01  0.1666666666666667 0.02857142857142857 0.01  0.2222222222222222 0.02857142857142857 0.01  0.2777777777777778 0.02857142857142857 0.01  0.3333333333333333 0.02857142857142857 0.01  0.3888888888888889 0.02857142857142857 0.01  0.4444444444444444 0.02857142857142857 0.01  0.5 0.02857142857142857 0.01  0.5555555555555556 0.02857142857142857 0.01  0.6111111111111112 0.02857142857142857 0.01  0.6666666666666666 0.02857142857142857 0.01  0.7222222222222222 0.02857142857142857 0.01  0.7777777777777778 0.02857142857142857 0.01  0.8333333333333334 0.02857142857142857 0.01  0.8888888888888888 0.02857142857142857 0.01  0.9444444444444444 0.02857142857142857 0.01  1 0.02857142857142857 0.01  0 0.04285714285714286 0.01  0.05555555555555555 0.04285714285714286 0.01  0.1111111111111111 0.04285714285714286 0.01  0.1666666666666667 0.04285714285714286 0.01  0.2222222222222222 0.04285714285714286 0.01  0.2777777777777778 0.04285714285714286 0.01  0.3333333333333333 0.04285714285714286 0.01  0.3888888888888889 0.04285714285714286 0.01  0.4444444444444444 0.04285714285714286 0.01  0.5 0.04285714285714286 0.01  0.5555555555555556 0.04285714285714286 0.01  0.6111111111111112 0.04285714285714286 0.01  0.6666666666666666 0.04285714285714286 0.01  0.7222222222222222 0.04285714285714286 0.01  0.7777777777777778 0.04285714285714286 0.01  0.8333333333333334 0.04285714285714286 0.01  0.8888888888888888 0.04285714285714286 0.01  0.9444444444444444 0.04285714285714286 0.01  1 0.04285714285714286 0.01  0 0.05714285714285715 0.01  0.05555555555555555 0.05714285714285715 0.01  0.1111111111111111 0.05714285714285715 0.01  0.1666666666666667 0.05714285714285715 0.01  0.2222222222222222 0.05714285714285715 0.01  0.2777777777777778 0.05714285714285715 0.01  0.3333333333333333 0.05714285714285715 0.01  0.3888888888888889 0.05714285714285715 0.01  0.4444444444444444 0.05714285714285715 0.01  0.5 0.05714285714285715 0.01  0.5555555555555556 0.05714285714285715 0.01  0.6111111111111112 0.05714285714285715 0.01  0.6666666666666666 0.05714285714285715 0.01  0.7222222222222222 0.05714285714285715 0.01  0.7777777777777778 0.05714285714285715 0.01  0.8333333333333334 0.05714285714285715 0.01  0.8888888888888888 0.05714285714285715 0.01  0.9444444444444444 0.05714285714285715 0.01  1 0.05714285714285715 0.01  0 0.07142857142857142 0.01  0.05555555555555555 0.07142857142857142 0.01  0.1111111111111111 0.07142857142857142 0.01  0.1666666666666667 0.07142857142857142 0.01  0.2222222222222222 0.07142857142857142 0.01  0.2777777777777778 0.07142857142857142 0.01  0.3333333333333333 0.07142857142857142 0.01  0.3888888888888889 0.07142857142857142 0.01  0.4444444444444444 0.07142857142857142 0.01  0.5 0.07142857142857142 0.01  0.5555555555555556 0.07142857142857142 0.01  0.6111111111111112 0.07142857142857142 0.01  0.6666666666666666 0.07142857142857142 0.01  0.7222222222222222 0.07142857142857142 0.01  0.7777777777777778 0.07142857142857142 0.01  0.8333333333333334 0.07142857142857142 0.01  0.8888888888888888 0.07142857142857142 0.01  
[...]
<PointData  Vectors="f_33"> 
<DataArray  type="Float64"  Name="f_33"  NumberOfComponents="3" format="ascii">0.0000000000000000e+00 0.0000000000000000e+00 0.0000000000000000e+00  -3.0647514213093313e-03 -2.0495096301464442e-04 -4.3756574255296807e-03  -5.7206006714790383e-03 8.3703788321804504e-05 -1.6764512076546442e-02  -8.1438723696106562e-03 5.4992892388764660e-04 -3.6602690036346495e-02  -1.0337742886322304e-02 1.1430093163655379e-03 -6.3179609866429010e-02  -1.2305699434604953e-02 1.8376162755827964e-03 -9.5822202648487564e-02  -1.4050757803419665e-02 2.6175276454112289e-03 -1.3387179957615092e-01  -1.5577423747133393e-02 3.4697387185455239e-03 -1.7668318603528127e-01  -1.6891997963649756e-02 4.3826375108268452e-03 -2.2362775442161278e-01  -1.8002680009970989e-02 5.3454283157347484e-03 -2.7409811136799705e-01  -1.8919680408400388e-02 6.3479943475635197e-03 -3.2751346127102926e-01  -1.9655335576868459e-02 7.3809215029088798e-03 -3.8332551544520899e-01  -2.0224210694193414e-02 8.4355840547463024e-03 -4.4102479237303466e-01  -2.0643184834216347e-02 9.5042557135241006e-03 -5.0014721875924706e-01  -2.0931517525820526e-02 1.0580232627766771e-02 -5.6028096151326179e-01  -2.1110899147070455e-02 1.1657964579775682e-02 -6.2107343271440274e-01  -2.1205501943566442e-02 1.2733193859201773e-02 -6.8223842202331786e-01  -2.1242085720799761e-02 1.3803088914639581e-02 -7.4356339173656383e-01  -2.1249925007026462e-02 1.4866497092083673e-02 -8.0491770779719818e-01  0.0000000000000000e+00 0.0000000000000000e+00 0.0000000000000000e+00  -2.9186472048176198e-03 -5.3027570594567938e-05 -4.5040512888908958e-03  -5.6302399353943345e-03 2.1841837054302799e-04 -1.6855111030286703e-02  -8.1001488903914461e-03 6.7184953843223182e-04 -3.6602708196893222e-02  -1.0337586534459953e-02 1.2525341361841675e-03 -6.3079631103627021e-02  -1.2345826888638231e-02 1.9349521573995890e-03 -9.5624766318531534e-02  -1.4127896714263176e-02 2.7029184812230414e-03 -1.3358344347560089e-01  -1.5688309065004357e-02 3.5435181078412388e-03 -1.7631187562597933e-01  -1.7033356330740920e-02 4.4452403866567861e-03 -2.2318196846893082e-01  -1.8171228503848603e-02 5.3973976386806777e-03 -2.7358647261406349e-01  -1.9112137680974080e-02 6.3899876018651087e-03 -3.2694455980512749e-01  -1.9868440018754749e-02 7.4137165630151101e-03 -3.8270779978513214e-01  -2.0454742822118049e-02 8.4600840408786664e-03 -4.4036648229241654e-01  -2.0887992677895838e-02 9.5214927020144738e-03 -4.9945622289368319e-01  -2.1187544356724548e-02 1.0591370052250609e-02 -5.5956479326882780e-01  -2.1375211913446247e-02 1.1664298000425418e-02 -6.2033912050968532e-01  -2.1475312661275694e-02 1.2736149544369075e-02 -6.8149240598930738e-01  -2.1514779456197636e-02 1.3804206600709036e-02 -7.4281137246450013e-01  -2.1523614158119285e-02 1.4867068554389302e-02 -8.0416429028689207e-01  0.0000000000000000e+00 0.0000000000000000e+00 0.0000000000000000e+00  -2.9017240026708957e-03 6.2864616725118646e-05 -4.5541346207789487e-03  -5.6332098299652607e-03 3.4971854966759562e-04 -1.6856149047902665e-02  -8.1364472718790919e-03 7.9870049816378459e-04 -3.6516646632740214e-02  -1.0407544557855301e-02 1.3693618791827901e-03 -6.2900999468108759e-02  -1.2447347036319516e-02 2.0399583865453397e-03 -9.5356911991175200e-02  -1.4258269186763265e-02 2.7956719065967339e-03 -1.3323298621031615e-01  -1.5844659052946939e-02 3.6241175669814467e-03 -1.7588663223846196e-01  -1.7212782639661053e-02 4.5140395176043466e-03 -2.2269014894997133e-01  -1.8370861361839283e-02 5.4549161638660455e-03 -2.7303633932200722e-01  -1.9329174905373031e-02 6.4368842955327427e-03 -3.2634425691304314e-01  -2.0100176821516713e-02 7.4507830895457891e-03 -3.8206524390290597e-01  -2.0698600172879323e-02 8.4882455850553706e-03 -4.3968927314489087e-01  -2.1141545995738021e-02 9.5418102856467853e-03 -4.9875155876444871e-01  -2.1448552986543013e-02 1.0605042351383121e-02 -5.5883938557919177e-01  -2.1641648174064439e-02 1.1672661041998706e-02 -6.1959910489234549e-01  -2.1745383111471197e-02 1.2740673705031161e-02 -6.8074324589255120e-01  -2.1786925935668340e-02 1.3806493336771669e-02 -7.4205773968357802e-01  -2.1796571753643565e-02 1.4868676871536618e-02 -8.0340981412078594e-01  0.0000000000000000e+00 0.0000000000000000e+00 0.0000000000000000e+00  -2.9063607446965555e-03 1.6248696793996341e-04 -4.5389536731689495e-03  -5.6576777788570698e-03 4.7609948728862331e-04 -1.6764814819981939e-02  -8.1926770357265265e-03 9.2723975238624559e-04 -3.6337442636091406e-02  -1.0495772038033851e-02 1.4901701109963153e-03 -6.2635186085588684e-02  -1.2565271003954506e-02 2.1495416898464760e-03 -9.5010127901406310e-02  -1.4403117198890175e-02 2.8929431717902125e-03 -1.3281251005917319e-01  -1.6013571430149497e-02 3.7089321535114378e-03 -1.7540033486410309e-01  -1.7402911644820478e-02 4.5866649480606836e-03 -2.2214603027420943e-01  -1.8579415937166520e-02 5.5158469388129523e-03 -2.7244230106474082e-01  -1.9553453009414728e-02 6.4867791145557293e-03 -3.2570796964942650e-01  -2.0337594472628524e-02 7.4904454167133375e-03 -3.8139404876828842e-01  -2.0946720002765606e-02 8.5186194220449856e-03 -4.3899009443589870e-01  -2.1398106356321646e-02 9.5639807915572084e-03 -4.9803081851096831e-01  -2.1711497889157667e-02 1.0620237096839949e-02 -5.5810291703560400e-01  -2.1909157538366374e-02 1.1682249245622361e-02 -6.1885206417290717e-01  -2.2015897004344552e-02 1.2746162480618620e-02 -6.7999002105998729e-01  -2.2059135798486347e-02 1.3809531027848373e-02 -7.4130184646664854e-01  -2.2069417264533868e-02 1.4871064363865162e-02 -8.0265366706535224e-01  0.0000000000000000e+00 0.0000000000000000e+00 0.0000000000000000e+00  -2.9058906871784139e-03 2.5920433045933689e-04 -4.4637294267642425e-03  -5.6838848981140382e-03 6.0132915087857824e-04 -1.6585540552156441e-02  -8.2533784148252666e-03 1.0571959257909623e-03 -3.6065556610256684e-02  -1.0589241449365096e-02 1.6136254090820517e-03 -6.2281152356715989e-02  -1.2688427034199468e-02 2.2621224206446134e-03 -9.4582853896148497e-02  -1.4552898922642292e-02 2.9931651190233904e-03 -1.3232034551527885e-01  -1.6187012078234548e-02 3.7964890691088229e-03 -1.7485137201502982e-01  -1.7597122419812938e-02 4.6617638123177636e-03 -2.2154812294009488e-01  -1.8791590978182261e-02 5.5789636555281449e-03 -2.7180301258479650e-01  -1.9780887447634270e-02 6.5385717107230871e-03 -3.2503450230298847e-01  -2.0577708228486018e-02 7.5317252628606494e-03 -3.8069316619841659e-01  -2.1197084519516962e-02 8.5503434982085701e-03 -4.3826803981530160e-01  -2.1656473194786557e-02 9.5872510954339487e-03 -4.9729322954522392e-01  -2.1975828717841393e-02 1.0636301673666786e-02 -5.5735473868746266e-01  -2.2177655637988795e-02 1.1692501727764834e-02 -6.1809746045847291e-01  -2.2287037374199979e-02 1.2752138183713530e-02 -6.7923228799740587e-01  -2.2331663851625182e-02 1.3812915169711972e-02 -7.4054331720147792e-01  -2.2342371913320527e-02 1.4873846174908579e-02 -8.0189554594621670e-01  0.0000000000000000e+00 0.0000000000000000e+00 0.0000000000000000e+00  -2.8904626183813794e-03 3.6434758358260439e-04 -4.3257628351492496e-03  -5.7022400171388822e-03 7.3151698730559197e-04 -1.6317805186186363e-02  -8.3101575421346205e-03 1.1907912546379057e-03 -3.5700719218467264e-02  -1.0680471932979805e-02 1.7402720195775099e-03 -6.1838331916250398e-02  -1.2810187398158417e-02 2.3776281697188992e-03 -9.4074351645744195e-02  -1.4701823883504977e-02 3.0960417760621368e-03 -1.3175571902733391e-01  -1.6360003837100002e-02 3.8864106122318744e-03 -1.7423900534242640e-01  -1.7791219053518981e-02 4.7389284283299565e-03 -2.2089575425231756e-01  -1.9003932431582059e-02 5.6438477037273199e-03 -2.7111787853853697e-01  -2.0008718868800755e-02 6.5918396029449313e-03 -3.2432334041807803e-01  -2.0818397952821959e-02 7.5741989366678230e-03 -3.7996216249983095e-01  -2.1448148544077936e-02 8.5829940066407973e-03 -4.3752275433437116e-01  -2.1915602958247269e-02 9.6111978749150850e-03 -4.9653851237360147e-01  -2.2240920885881664e-02 1.0652813836750426e-02 -5.5659464195546260e-01  -2.2446844217758711e-02 1.1702998632909831e-02 -6.1733514946672274e-01  -2.2558731222637331e-02 1.2758186490058950e-02 -6.7846995553020650e-01  -2.2604564774919400e-02 1.3816240268896175e-02 -7.3978209735272715e-01  -2.2615529122285708e-02 1.4876589368124121e-02 -8.0113543451603353e-01  0.0000000000000000e+00 0.0000000000000000e+00 0.0000000000000000e+00  -2.8462239084710420e-03 4.8770080280018102e-04 -4.1120977734139365e-03  -5.6967750637019771e-03 8.7244564629597042e-04 -1.5954531942041220e-02  -8.3469281526466765e-03 1.3308074772387811e-03 -3.5239404528491405e-02  -1.0754143029503650e-02 1.8713238681760792e-03 -6.1304424517141486e-02  -1.2916506990618169e-02 2.4965778304178602e-03 -9.3482855265268033e-02  -1.4837311355995862e-02 3.2017846281086892e-03 -1.3111719448257467e-01  -1.6521478691309613e-02 3.9787575953937060e-03 -1.7356206093612409e-01  -1.7975634168234236e-02 4.8181306053389260e-03 -2.2018798426371147e-01  -1.9208330420223994e-02 5.7104065654360906e-03 -2.7038617584057856e-01  -2.0230230951804203e-02 6.6464366987880425e-03 -3.2357396285928097e-01  -2.1054259459947905e-02 7.6176725859795659e-03 -3.7920070270115402e-01  -2.1695721968377431e-02 8.6163336754985984e-03 -4.3675407139254258e-01  -2.2172404892457483e-02 9.6355446267033171e-03 -4.9576664847822399e-01  -2.2504651287631357e-02 1.0669462378805582e-02 -5.5582273327103071e-01  -2.2715417889992748e-02 1.1713399328380496e-02 -6.1656533561108684e-01  -2.2830320035146536e-02 1.2763944862060650e-02 -6.7770329189790901e-01  -2.2877648596641962e-02 1.3819121445126387e-02 -7.3901847642742391e-01  -2.2888907174799689e-02 1.4878862202428624e-02 -8.0037360683011838e-01  0.0000000000000000e+00 0.0000000000000000e+00 0.0000000000000000e+00  -2.7141458626871581e-03 6.2144733066764215e-04 -3.8165873330774755e-03  -5.6014701373272718e-03 1.0165791884915521e-03 -1.5496418421866925e-02  -8.2988878293375340e-03 1.4698729577041058e-03 -3.4686100776527680e-02  -1.0749440946127281e-02 1.9997089972925001e-03 -6.0685037485031776e-02  -1.2951926313852500e-02 2.6124217517573579e-03 -9.2814124632437989e-02  -1.4909747478860284e-02 3.3045007876084569e-03 -1.3041030368854595e-01  -1.6627774017402206e-02 4.0683465472966963e-03 -1.7282569605090692e-01  -1.8112583556535309e-02 4.8949010317456080e-03 -2.1942953923393374e-01  -1.9372705220002402e-02 5.7748645005094874e-03 -2.6961217878115912e-01  -2.0418800725246555e-02 6.6992454008906431e-03 -3.2279018600677462e-01  -2.1263813571337897e-02 7.6596406959699428e-03 -3.7841214690143338e-01  -2.1923092854332700e-02 8.6484138772037669e-03 -4.3596490142659827e-01  -2.2414493419992219e-02 9.6588356897388383e-03 -4.9498010945637105e-01  -2.2758454118442201e-02 1.0685211930321197e-02 -5.5504106021702171e-01  -2.2978057173439127e-02 1.1723006920519806e-02 -6.1578966113001088e-01  -2.3099077148631353e-02 1.2768968764680083e-02 -6.7693355397710020e-01  -2.3150072590536974e-02 1.3821253010610849e-02 -7.3825329004485318e-01  -2.3162553261759672e-02 1.4880389004080201e-02 -7.9961044346702981e-01  0.0000000000000000e+00 0.0000000000000000e+00 0.0000000000000000e+00  -1.4263306866441300e-03 -9.0276604867480092e-05 -4.2458476558378611e-03  -2.7072418157466911e-03 1.6984483216899026e-04 -1.6644512595659473e-02  -3.8703240212452613e-03 5.6872891734503805e-04 -3.6492489190879641e-02  -4.9242208898932077e-03 1.0891342573610002e-03 -6.3079607664368015e-02  -5.8707367534126843e-03 1.7133942451232655e-03 -9.5732480290273550e-02  -6.7110127379668644e-03 2.4277625766170536e-03 -1.3379228608911706e-01  -7.4470117269925234e-03 3.2201309287223389e-03 -1.7661369299986590e-01  -8.0816289996572532e-03 4.0792193892582734e-03 -2.2356799513628942e-01  -8.6186950115917423e-03 4.9943339699372877e-03 -2.7404770593128130e-01  -9.0630075395813463e-03 5.9553468956905758e-03 -3.2747193477843006e-01  -9.4203788970281203e-03 6.9527613682234162e-03 -3.8329229399054709e-01  -9.6976827466965215e-03 7.9778099957530449e-03 -4.4099919884728889e-01  -9.9028943130731063e-03 9.0225681454152388e-03 -5.0012846914387188e-01  -1.0045122324289014e-02 1.0080075195275501e-02 -5.6026816181913741e-01  -1.0134633741920697e-02 1.1144461299534395e-02 -6.2106557641207938e-01  -1.0182879100801864e-02 1.2211075785865695e-02 -6.8223438631598987e-01  -1.0202538797670791e-02 1.3276586236781435e-02 -7.4356192535881926e-01  -1.0207329944375704e-02 1.4339143660843153e-02 -8.0491706187218170e-01  0.0000000000000000e+00 0.0000000000000000e+00 0.0000000000000000e+00  -1.3913360353389579e-03 5.4691269748521368e-06 -4.3615266648702215e-03  -2.7297286518596629e-03 2.4760749405223646e-04 -1.6734330996691450e-02  -3.9296550060674779e-03 6.3938337518558192e-04 -3.6492823948801101e-02  -5.0171447106003297e-03 1.1528174540863443e-03 -6.2980227228673274e-02  -5.9938984638187153e-03 1.7701559835837754e-03 -9.5535652569995591e-02  -6.8612504934173740e-03 2.4776986300509289e-03 -1.3350446448010814e-01  -7.6212872228040626e-03 3.2634068062318759e-03 -1.7624281727627464e-01  -8.2769910877899568e-03 4.1160661264495425e-03 -2.2312254010810298e-01  -8.8322756556321064e-03 5.0250468731780733e-03 -2.7353629939918572e-01  -9.2920356702414497e-03 5.9802872436069462e-03 -3.2690317623032539e-01  -9.6622025530317367e-03 6.9723590667000257e-03 -3.8267464394191369e-01  -9.9497952885956083e-03 7.9925661695352639e-03 -4.4034089102062574e-01  -1.0162963029232048e-02 9.0330572889207022e-03 -4.9943742783870632e-01  -1.0311018671987610e-02 1.0086946741271158e-02 -5.5955191776887026e-01  -1.0404463862043439e-02 1.1148440705669310e-02 -6.2033117724594244e-01  -1.0455009878287643e-02 1.2212965926056448e-02 -6.8148829443713455e-01  -1.0475632670225020e-02 1.3277266924689817e-02 -7.4280986450765618e-01  -1.0480760621725493e-02 1.4339389048138225e-02 -8.0416378775392228e-01  0.0000000000000000e+00 0.0000000000000000e+00 0.0000000000000000e+00  -1.3962822498653068e-03 6.9495908978000194e-05 -4.4076201084356816e-03  -2.7632206071658695e-03 3.1677353916055275e-04 -1.6730382157019465e-02  -3.9971823976340855e-03 7.0562307745148138e-04 -3.6404481392635177e-02  -5.1163502636233458e-03 1.2135830027962891e-03 -6.2800301849304782e-02  -6.1220138023996146e-03 1.8247010406109334e-03 -9.5266919227028526e-02  -7.0153638575177132e-03 2.5258558737076054e-03 -1.3315333854371950e-01  -7.7984915334017250e-03 3.3052451430682058e-03 -1.7581704222941094e-01  -8.4744301072077668e-03 4.1517734355555934e-03 -2.2263029750427929e-01  -9.0471698803188984e-03 5.0548924964634520e-03 -2.7298583856347131e-01  -9.5217075682108021e-03 6.0046109050044009e-03 -3.2630263329967107e-01  -9.9041031528146820e-03 6.9915687322386535e-03 -3.8203192868639785e-01  -1.0201532117724546e-02 8.0071387731028270e-03 -4.3966359609168704e-01  -1.0422329306323351e-02 9.0435401098601220e-03 -4.9873274364932019e-01  -1.0576023535355524e-02 1.0093958473854492e-02 -5.5882654681428068e-01  -1.0673362369388354e-02 1.1152671632094434e-02 -6.1959124507478192e-01  -1.0726327216595086e-02 1.2215178453891209e-02 -6.8073925373910860e-01  -1.0748180229293169e-02 1.3278303786800644e-02 -7.4205637700267379e-01  -1.0753785169123195e-02 1.4340088191488916e-02 -8.0340951044465958e-01  0.0000000000000000e+00 0.0000000000000000e+00 0.0000000000000000e+00  -1.4131789120336031e-03 1.2269825826321490e-04 -4.3895791337006298e-03  -2.8065726604215870e-03 3.8100426887280943e-04 -1.6635438146875247e-02  -4.0730301407757670e-03 7.7034758642127526e-04 -3.6222824019228057e-02  -5.2229928202198227e-03 1.2743197848870587e-03 -6.2532817036683411e-02  -6.2567102126036894e-03 1.8797360081961882e-03 -9.4918875383718890e-02  -7.1752061972801184e-03 2.5746710218491615e-03 -1.3273184478908237e-01  -7.9805942908857640e-03 3.3477826250841751e-03 -1.7532989932692075e-01  -8.6759698994565895e-03 4.1881743810274772e-03 -2.2208547591270050e-01  -9.2654094340493525e-03 5.0854082210262021e-03 -2.7239122541443223e-01  -9.7540206054457686e-03 6.0295737192909453e-03 -3.2566588937016749e-01  -1.0148001103217249e-02 7.0113831903507867e-03 -3.8136038626207402e-01  -1.0454692267429710e-02 8.0222799441303609e-03 -4.3896417009104693e-01  -1.0682624160075637e-02 9.0545540376947252e-03 -4.9801184561225509e-01  -1.0841551176003177e-02 1.0101462821623332e-02 -5.5808999814399940e-01  -1.0942477135158796e-02 1.1157355188696394e-02 -6.1884418858361068e-01  -1.0997665823371137e-02 1.2217800342281778e-02 -6.7998606348245927e-01  -1.1020667434694785e-02 1.3279707270702030e-02 -7.4130055787593263e-01  -1.1026688191585714e-02 1.4341227567985023e-02 -8.0265348972255990e-01  0.0000000000000000e+00 0.0000000000000000e+00 0.0000000000000000e+00  -1.4286288281048140e-03 1.7456382661019005e-04 -4.3136440369477393e-03  -2.8517255748583751e-03 4.4456625896748870e-04 -1.6454071688638799e-02  -4.1513857528088028e-03 8.3583153096662254e-04 -3.5948895115638105e-02  -5.3323493860113116e-03 1.3364704368233878e-03 -6.2177153455045354e-02  -6.3940182464190349e-03 1.9363726910358353e-03 -9.4490279108447942e-02  -7.3374578487244478e-03 2.6250579803424059e-03 -1.3223857022755095e-01  -8.1648706536742010e-03 3.3917760746514278e-03 -1.7477999165915181e-01  -8.8794372555075878e-03 4.2258844873420218e-03 -2.2148676679126594e-01  -9.4853298199807038e-03 5.1170776835032863e-03 -2.7175126587027842e-01  -9.9877721155000581e-03 6.0555357074595327e-03 -3.2499187248765204e-01  -1.0393102882454477e-02 7.0320476880038575e-03 -3.8065906684171769e-01  -1.0708832057203362e-02 8.0381301965683771e-03 -4.3824178170822647e-01  -1.0943687489291904e-02 9.0661463710199081e-03 -4.9727401517653674e-01  -1.1107651761391519e-02 1.0109427113542391e-02 -5.5734165844898209e-01  -1.1211988527662033e-02 1.1162394234810340e-02 -6.1808948999815094e-01  -1.1269252266276647e-02 1.2220687831108797e-02 -6.7922828746366504e-01  -1.1293291270603956e-02 1.3281304461489660e-02 -7.4054202728206131e-01  -1.1299627389123186e-02 1.4342604216273600e-02 -8.0189541039829704e-01  0.0000000000000000e+00 0.0000000000000000e+00 0.0000000000000000e+00  -1.4370763460146518e-03 2.3225183418736818e-04 -4.1781535513589537e-03  -2.8930988344227915e-03 5.1164465389820274e-04 -1.6186290322206375e-02  -4.2275984627562707e-03 9.0419792766068192e-04 -3.5583215878126503e-02  -5.4402609576170219e-03 1.4012285679837813e-03 -6.1733440454355012e-02  -6.5302503665774919e-03 1.9954090103374896e-03 -9.3980962935043932e-02  -7.4989037375968850e-03 2.6776201274099362e-03 -1.3167321736762130e-01  -8.3485697979651143e-03 3.4377044395836110e-03 -1.7416698001059419e-01  -9.0825286016097649e-03 4.2652843038528737e-03 -2.2083382925516165e-01  -9.7050516050972840e-03 5.1501941135539495e-03 -2.7106563522070720e-01  -1.0221478397726257e-02 6.0827089905694529e-03 -3.2428028278715454e-01  -1.0638286927187206e-02 7.0536981995521541e-03 -3.7992770046039431e-01  -1.0963153203856910e-02 8.0547544266131085e-03 -4.3749619451679628e-01  -1.1205000081886823e-02 9.0783166447114868e-03 -4.9651905246484973e-01  -1.1374035492803162e-02 1.0117792205180920e-02 -5.5658136687080562e-01  -1.1481780676649275e-02 1.1167679200442053e-02 -6.1732702859766464e-01  -1.1541084623507995e-02 1.2223691240181252e-02 -6.7846584172701419e-01  -1.1566110589975403e-02 1.3282913592016625e-02 -7.3978072840128928e-01  -1.1572679870830315e-02 1.4343987529027252e-02 -8.0113524948938886e-01  0.0000000000000000e+00 0.0000000000000000e+00 0.0000000000000000e+00  -1.4342456796691808e-03 3.0437179805014561e-04 -3.9715397290018273e-03  -2.9246521888159666e-03 5.8790119998184710e-04 -1.5825933053378274e-02  -4.2952996427189447e-03 9.7918527260114309e-04 -3.5123246007280166e-02  -5.5405005176961016e-03 1.4712639199227977e-03 -6.1200291329471516e-02  -6.6596244836133085e-03 2.0589230944614038e-03 -9.3389944515491763e-02  -7.6543284085562133e-03 2.7340610425937791e-03 -1.3103500514323799e-01  -8.5270810283861673e-03 3.4869865355561650e-03 -1.7349022791370577e-01  -9.2812412295129494e-03 4.3075472774145454e-03 -2.2012615317841477e-01  -9.9211667027857744e-03 5.1857070761646201e-03 -2.7033394186738269e-01  -1.0452302686397316e-02 6.1118353715527395e-03 