<?xml version="1.0"?>
<VTKFile type="UnstructuredGrid"  version="0.1"  >
<UnstructuredGrid>
<Piece  NumberOfPoints="760" NumberOfCells="3024">
<Points>
<DataArray  type="Float64"  NumberOfComponents="3"  format="ascii">0 0 0  0.05555555555555555 0 0  0.1111111111111111 0 0  0.1666666666666667 0 0  0.2222222222222222 0 0  0.2777777777777778 0 0  0.3333333333333333 0 0  0.3888888888888889 0 0  0.4444444444444444 0 0  0.5 0 0  0.5555555555555556 0 0  0.6111111111111112 0 0  0.6666666666666666 0 0  0.7222222222222222 0 0  0.7777777777777778 0 0  0.8333333333333334 0 0  0.8888888888888888 0 0  0.9444444444444444 0 0  1 0 0  0 0.01428571428571429 0  0.05555555555555555 0.01428571428571429 0  0.1111111111111111 0.01428571428571429 0  0.1666666666666667 0.01428571428571429 0  0.2222222222222222 0.01428571428571429 0  0.2777777777777778 0.01428571428571429 0  0.3333333333333333 0.01428571428571429 0  0.3888888888888889 0.01428571428571429 0  0.4444444444444444 0.01428571428571429 0  0.5 0.01428571428571429 0  0.5555555555555556 0.01428571428571429 0  0.6111111111111112 0.01428571428571429 0  0.6666666666666666 0.01428571428571429 0  0.7222222222222222 0.01428571428571429 0  0.7777777777777778 0.01428571428571429 0  0.8333333333333334 0.01428571428571429 0  0.8888888888888888 0.01428571428571429 0  0.9444444444444444 0.01428571428571429 0  1 0.01428571428571429 0  0 0.02857142857142857 0  0.05555555555555555 0.02857142857142857 0  0.1111111111111111 0.02857142857142857 0  0.1666666666666667 0.02857142857142857 0  0.2222222222222222 0.02857142857142857 0  0.2777777777777778 0.02857142857142857 0  0.3333333333333333 0.02857142857142857 0  0.3888888888888889 0.02857142857142857 0  0.4444444444444444 0.02857142857142857 0  0.5 0.02857142857142857 0  0.5555555555555556 0.02857142857142857 0  0.6111111111111112 0.02857142857142857 0  0.6666666666666666 0.02857142857142857 0  0.7222222222222222 0.02857142857142857 0  0.7777777777777778 0.02857142857142857 0  0.8333333333333334 0.02857142857142857 0  0.8888888888888888 0.02857142857142857 0  0.9444444444444444 0.02857142857142857 0  1 0.02857142857142857 0  0 0.04285714285714286 0  0.05555555555555555 0.04285714285714286 0  0.1111111111111111 0.04285714285714286 0  0.1666666666666667 0.04285714285714286 0  0.2222222222222222 0.04285714285714286 0  0.2777777777777778 0.04285714285714286 0  0.3333333333333333 0.04285714285714286 0  0.3888888888888889 0.04285714285714286 0  0.4444444444444444 0.04285714285714286 0  0.5 0.04285714285714286 0  0.5555555555555556 0.04285714285714286 0  0.6111111111111112 0.04285714285714286 0  0.6666666666666666 0.04285714285714286 0  0.7222222222222222 0.04285714285714286 0  0.7777777777777778 0.04285714285714286 0  0.8333333333333334 0.04285714285714286 0  0.8888888888888888 0.04285714285714286 0  0.9444444444444444 0.04285714285714286 0  1 0.04285714285714286 0  0 0.05714285714285715 0  0.05555555555555555 0.05714285714285715 0  0.1111111111111111 0.05714285714285715 0  0.1666666666666667 0.05714285714285715 0  0.2222222222222222 0.05714285714285715 0  0.2777777777777778 0.05714285714285715 0  0.3333333333333333 0.05714285714285715 0  0.3888888888888889 0.05714285714285715 0  0.4444444444444444 0.05714285714285715 0  0.5 0.05714285714285715 0  0.5555555555555556 0.05714285714285715 0  0.6111111111111112 0.05714285714285715 0  0.6666666666666666 0.05714285714285715 0  0.7222222222222222 0.05714285714285715 0  0.7777777777777778 0.05714285714285715 0  0.8333333333333334 0.05714285714285715 0  0.8888888888888888 0.05714285714285715 0  0.9444444444444444 0.05714285714285715 0  1 0.05714285714285715 0  0 0.07142857142857142 0  0.05555555555555555 0.07142857142857142 0  0.1111111111111111 0.07142857142857142 0  0.1666666666666667 0.07142857142857142 0  0.2222222222222222 0.07142857142857142 0  0.2777777777777778 0.07142857142857142 0  0.3333333333333333 0.07142857142857142 0  0.3888888888888889 0.07142857142857142 0  0.4444444444444444 0.07142857142857142 0  0.5 0.07142857142857142 0  0.5555555555555556 0.07142857142857142 0  0.6111111111111112 0.07142857142857142 0  0.6666666666666666 0.07142857142857142 0  0.7222222222222222 0.07142857142857142 0  0.7777777777777778 0.07142857142857142 0  0.8333333333333334 0.07142857142857142 0  0.8888888888888888 0.07142857142857142 0  0.9444444444444444 0.07142857142857142 0  1 0.07142857142857142 0  0 0.08571428571428573 0  0.05555555555555555 0.08571428571428573 0  0.1111111111111111 0.08571428571428573 0  0.1666666666666667 0.08571428571428573 0  0.2222222222222222 0.08571428571428573 0  0.2777777777777778 0.08571428571428573 0  0.3333333333333333 0.08571428571428573 0  0.3888888888888889 0.08571428571428573 0  0.4444444444444444 0.08571428571428573 0  0.5 0.08571428571428573 0  0.5555555555555556 0.08571428571428573 0  0.6111111111111112 0.08571428571428573 0  0.6666666666666666 0.08571428571428573 0  0.7222222222222222 0.08571428571428573 0  0.7777777777777778 0.08571428571428573 0  0.8333333333333334 0.08571428571428573 0  0.8888888888888888 0.08571428571428573 0  0.9444444444444444 0.08571428571428573 0  1 0.08571428571428573 0  0 0.1 0  0.05555555555555555 0.1 0  0.1111111111111111 0.1 0  0.1666666666666667 0.1 0  0.2222222222222222 0.1 0  0.2777777777777778 0.1 0  0.3333333333333333 0.1 0  0.3888888888888889 0.1 0  0.4444444444444444 0.1 0  0.5 0.1 0  0.5555555555555556 0.1 0  0.6111111111111112 0.1 0  0.6666666666666666 0.1 0  0.7222222222222222 0.1 0  0.7777777777777778 0.1 0  0.8333333333333334 0.1 0  0.8888888888888888 0.1 0  0.9444444444444444 0.1 0  1 0.1 0  0 0 0.01  0.05555555555555555 0 0.01  0.1111111111111111 0 0.01  0.1666666666666667 0 0.01  0.2222222222222222 0 0.01  0.2777777777777778 0 0.01  0.3333333333333333 0 0.01  0.3888888888888889 0 0.01  0.4444444444444444 0 0.01  0.5 0 0.01  0.5555555555555556 0 0.01  0.6111111111111112 0 0.01  0.6666666666666666 0 0.01  0.7222222222222222 0 0.01  0.7777777777777778 0 0.01  0.8333333333333334 0 0.01  0.8888888888888888 0 0.01  0.9444444444444444 0 0.01  1 0 0.01  0 0.01428571428571429 0.01  0.05555555555555555 0.01428571428571429 0.01  0.1111111111111111 0.01428571428571429 0.01  0.1666666666666667 0.01428571428571429 0.01  0.2222222222222222 0.01428571428571429 0.01  0.2777777777777778 0.01428571428571429 0.01  0.3333333333333333 0.01428571428571429 0.01  0.3888888888888889 0.01428571428571429 0.01  0.4444444444444444 0.01428571428571429 0.01  0.5 0.01428571428571429 0.01  0.5555555555555556 0.01428571428571429 0.01  0.6111111111111112 0.01428571428571429 0.01  0.6666666666666666 0.01428571428571429 0.01  0.7222222222222222 0.01428571428571429 0.01  0.7777777777777778 0.01428571428571429 0.01  0.8333333333333334 0.01428571428571429 0.01  0.8888888888888888 0.01428571428571429 0.01  0.9444444444444444 0.01428571428571429 0.01  1 0.01428571428571429 0.01  0 0.02857142857142857 0.01  0.05555555555555555 0.02857142857142857 0.01  0.1111111111111111 0.02857142857142857 0.01  0.1666666666666667 0.02857142857142857 0.01  0.2222222222222222 0.02857142857142857 0.01  0.2777777777777778 0.02857142857142857 0.01  0.3333333333333333 0.02857142857142857 0.01  0.3888888888888889 0.02857142857142857 0.01  0.4444444444444444 0.02857142857142857 0.01  0.5 0.02857142857142857 0.01  0.5555555555555556 0.02857142857142857 0.01  0.6111111111111112 0.02857142857142857 0.01  0.6666666666666666 0.02857142857142857 0.01  0.7222222222222222 0.02857142857142857 0.01  0.7777777777777778 0.02857142857142857 0.01  0.8333333333333334 0.02857142857142857 0.01  0.8888888888888888 0.02857142857142857 0.01  0.9444444444444444 0.02857142857142857 0.01  1 0.02857142857142857 0.01  0 0.04285714285714286 0.01  0.05555555555555555 0.04285714285714286 0.01  0.1111111111111111 0.04285714285714286 0.01  0.1666666666666667 0.04285714285714286 0.01  0.2222222222222222 0.04285714285714286 0.01  0.2777777777777778 0.04285714285714286 0.01  0.3333333333333333 0.04285714285714286 0.01  0.3888888888888889 0.04285714285714286 0.01  0.4444444444444444 0.04285714285714286 0.01  0.5 0.04285714285714286 0.01  0.5555555555555556 0.04285714285714286 0.01  0.6111111111111112 0.04285714285714286 0.01  0.6666666666666666 0.04285714285714286 0.01  0.7222222222222222 0.04285714285714286 0.01  0.7777777777777778 0.04285714285714286 0.01  0.8333333333333334 0.04285714285714286 0.01  0.8888888888888888 0.04285714285714286 0.01  0.9444444444444444 0.04285714285714286 0.01  1 0.04285714285714286 0.01  0 0.05714285714285715 0.01  0.05555555555555555 0.05714285714285715 0.01  0.1111111111111111 0.05714285714285715 0.01  0.1666666666666667 0.05714285714285715 0.01  0.2222222222222222 0.05714285714285715 0.01  0.2777777777777778 0.05714285714285715 0.01  0.3333333333333333 0.05714285714285715 0.01  0.3888888888888889 0.05714285714285715 0.01  0.4444444444444444 0.05714285714285715 0.01  0.5 0.05714285714285715 0.01  0.5555555555555556 0.05714285714285715 0.01  0.6111111111111112 0.05714285714285715 0.01  0.6666666666666666 0.05714285714285715 0.01  0.7222222222222222 0.05714285714285715 0.01  0.7777777777777778 0.05714285714285715 0.01  0.8333333333333334 0.05714285714285715 0.01  0.8888888888888888 0.05714285714285715 0.01  0.9444444444444444 0.05714285714285715 0.01  1 0.05714285714285715 0.01  0 0.07142857142857142 0.01  0.05555555555555555 0.07142857142857142 0.01  0.1111111111111111 0.07142857142857142 0.01  0.1666666666666667 0.07142857142857142 0.01  0.2222222222222222 0.07142857142857142 0.01  0.2777777777777778 0.07142857142857142 0.01  0.3333333333333333 0.07142857142857142 0.01  0.3888888888888889 0.07142857142857142 0.01  0.4444444444444444 0.07142857142857142 0.01  0.5 0.07142857142857142 0.01  0.5555555555555556 0.07142857142857142 0.01  0.6111111111111112 0.07142857142857142 0.01  0.6666666666666666 0.07142857142857142 0.01  0.7222222222222222 0.07142857142857142 0.01  0.7777777777777778 0.07142857142857142 0.01  0.8333333333333334 0.07142857142857142 0.01  0.8888888888888888 0.07142857142857142 0.01  
[...]
<PointData  Vectors="f_33"> 
<DataArray  type="Float64"  Name="f_33"  NumberOfComponents="3" format="ascii">0.0000000000000000e+00 0.0000000000000000e+00 0.0000000000000000e+00  -3.4512649017499862e-03 -1.9010066021719744e-04 -5.0116038828526875e-03  -6.4385190800508290e-03 2.4858999649675936e-04 -1.9221019504010145e-02  -9.1643293521670652e-03 9.5608273617187988e-04 -4.1980621914362796e-02  -1.1633230630706325e-02 1.8690426415161508e-03 -7.2478631229660417e-02  -1.3849254290166944e-02 2.9526445394760592e-03 -1.0994629170238285e-01  -1.5815633539222211e-02 4.1825240404353451e-03 -1.5363095799540166e-01  -1.7537201707315025e-02 5.5380908640362790e-03 -2.0279481283429038e-01  -1.9020773329852372e-02 7.0004682582430564e-03 -2.5671834318558956e-01  -2.0275276987983079e-02 8.5518732131765664e-03 -3.1470553060611622e-01  -2.1311898813993656e-02 1.0175507687871161e-02 -3.7608998393232673e-01  -2.2144231786413896e-02 1.1855640130113433e-02 -4.4024173399069216e-01  -2.2788412397539204e-02 1.3577762679216281e-02 -5.0657453990289181e-01  -2.3263236746233932e-02 1.5328781444844635e-02 -5.7455360320218274e-01  -2.3590253816691463e-02 1.7097223771289461e-02 -6.4370360550099281e-01  -2.3793837710387480e-02 1.8873457489465895e-02 -7.1361699583618809e-01  -2.3901257976770982e-02 2.0649920677476213e-02 -7.8396246579959106e-01  -2.3942810254654757e-02 2.2421347283008108e-02 -8.5449364417834506e-01  -2.3951707466786258e-02 2.4185164346673040e-02 -9.2505890709150829e-01  0.0000000000000000e+00 0.0000000000000000e+00 0.0000000000000000e+00  -3.3038548652444214e-03 -2.0098799252625356e-05 -5.1598836581846176e-03  -6.3714490738807925e-03 3.9918049274290194e-04 -1.9326307417563235e-02  -9.1665719077455490e-03 1.0923705668368820e-03 -4.1982002866470768e-02  -1.1699925011055604e-02 1.9915221742955380e-03 -7.2365232845226751e-02  -1.3975180827845848e-02 3.0615479003833880e-03 -1.0972096567045557e-01  -1.5995590162835319e-02 4.2781140752578377e-03 -1.5330114470882769e-01  -1.7766023299657725e-02 5.6207279667371528e-03 -2.0236959397883392e-01  -1.9293324460683051e-02 7.0706250288334648e-03 -2.5620739653271229e-01  -2.0586460970957066e-02 8.6101428785433694e-03 -3.1411870985056872e-01  -2.1656682180316141e-02 1.0222612390623605e-02 -3.7543711895738946e-01  -2.2517677990570473e-02 1.1892438585601003e-02 -4.3953250803934096e-01  -2.3185721452086316e-02 1.3605256684507648e-02 -5.0581839080208280e-01  -2.3679789301466119e-02 1.5348121012305118e-02 -5.7375962907357447e-01  -2.4021658843373171e-02 1.7109710638049169e-02 -6.4288046746561289e-01  -2.4235981801230422e-02 1.8880546625222004e-02 -7.1277281313489071e-01  -2.4350347347363098e-02 2.0653219454387802e-02 -7.8310469428395035e-01  -2.4395425095891980e-02 2.2422596562881220e-02 -8.5362889873050929e-01  -2.4405497770395333e-02 2.4185806234936297e-02 -9.2419254135289197e-01  0.0000000000000000e+00 0.0000000000000000e+00 0.0000000000000000e+00  -3.3026989334466478e-03 1.1001422822107161e-04 -5.2191205499102075e-03  -6.4102602741295343e-03 5.4701794782980489e-04 -1.9329248434628046e-02  -9.2595431334589716e-03 1.2354439035708214e-03 -4.1884976318231903e-02  -1.1846091108191707e-02 2.1234072434889936e-03 -7.2161862689395131e-02  -1.4170678059808265e-02 3.1801699483232589e-03 -1.0941503822218783e-01  -1.6235854435683914e-02 4.3829627296487371e-03 -1.5290020346616587e-01  -1.8046328782317787e-02 5.7118972178504066e-03 -2.0188256030921461e-01  -1.9608953785309240e-02 7.1484977982199955e-03 -2.5564365122782007e-01  -2.0932782500742021e-02 8.6752900211054130e-03 -3.1348770519128910e-01  -2.2029203816611172e-02 1.0275762643249997e-02 -3.7474818526128523e-01  -2.2912094926458182e-02 1.1934472534603171e-02 -4.3879472955427651e-01  -2.3597963338690617e-02 1.3637208526680343e-02 -5.0504050371872444e-01  -2.4106068721448853e-02 1.5371182184604423e-02 -5.7294992406374246e-01  -2.4458521493174214e-02 1.7125232744135879e-02 -6.4204669027054950e-01  -2.4680356876268069e-02 1.8890041769772555e-02 -7.1192206019397108e-01  -2.4799589366297298e-02 2.0658357643067390e-02 -7.8224329884546639e-01  -2.4847332516202567e-02 2.2425203530874224e-02 -8.5276228898125317e-01  -2.4858404639248925e-02 2.4187646710647676e-02 -9.2332494128140286e-01  0.0000000000000000e+00 0.0000000000000000e+00 0.0000000000000000e+00  -3.3253444852422284e-03 2.2292015663002773e-04 -5.2035859625202338e-03  -6.4731230013309665e-03 6.9053893401336739e-04 -1.9226317873286325e-02  -9.3748935204193869e-03 1.3816643628750053e-03 -4.1681108244638353e-02  -1.2012764831595966e-02 2.2609614655356202e-03 -7.1858435928850953e-02  -1.4384573213612624e-02 3.3050297345476095e-03 -1.0901846996752385e-01  -1.6492334691767370e-02 4.4938669398636001e-03 -1.5241880077258155e-01  -1.8340685428209432e-02 5.8086636020037268e-03 -2.0132531659688119e-01  -1.9936530393742526e-02 7.2314142131057434e-03 -2.5501971784701677e-01  -2.1289037314852842e-02 8.7449029040682410e-03 -3.1280613290632470e-01  -2.2409759315393758e-02 1.0332806114926504e-02 -3.7401777310294870e-01  -2.3312784861323450e-02 1.1979847255040799e-02 -4.3802391256626694e-01  -2.4014880272723183e-02 1.3671977975416088e-02 -5.0423725233023775e-01  -2.4535613122306146e-02 1.5396574422990294e-02 -5.7212164484325012e-01  -2.4897452566720459e-02 1.7142642763561925e-02 -6.4120012459255482e-01  -2.5125844407093190e-02 1.8901031309136208e-02 -7.1106317999937418e-01  -2.5249258677566555e-02 2.0664651419864549e-02 -7.8137719866793764e-01  -2.5299267807989554e-02 2.2428694174068231e-02 -8.5189306060865033e-01  -2.5311157128470367e-02 2.4190397933904307e-02 -9.2245540051541453e-01  0.0000000000000000e+00 0.0000000000000000e+00 0.0000000000000000e+00  -3.3417723525179695e-03 3.3385623262401494e-04 -5.1191857121150553e-03  -6.5377328310637075e-03 8.3407737557495158e-04 -1.9022531398230128e-02  -9.4952114311024141e-03 1.5307171605695514e-03 -4.1370878113490328e-02  -1.2185307983309791e-02 2.4026436755419313e-03 -7.1453715085037631e-02  -1.4604334104824507e-02 3.4343047149039967e-03 -1.0852943047755866e-01  -1.6754347200314532e-02 4.6090196162865476e-03 -1.5185498486759061e-01  -1.8640119044611572e-02 5.9093292943955987e-03 -2.0069598127331922e-01  -2.0268682190720963e-02 7.3178149699600755e-03 -2.5433385819210752e-01  -2.1649348909429565e-02 8.8175682932020594e-03 -3.1207242357913823e-01  -2.2793850146324297e-02 1.0392474924107345e-02 -3.7324448782480268e-01  -2.3716493252154924e-02 1.2027435737745279e-02 -4.3721883474952017e-01  -2.4434308921890257e-02 1.3708572194012128e-02 -5.0340757997406094e-01  -2.4967177650745746e-02 1.5423430694612860e-02 -5.7127389098409664e-01  -2.5337932444537713e-02 1.7161189812718570e-02 -6.4034001440225374e-01  -2.5572436225886737e-02 1.8912870443714685e-02 -7.1019554620047154e-01  -2.5699627868313132e-02 2.0671552176831892e-02 -7.8050587769080071e-01  -2.5751559884937929e-02 2.2432603795596567e-02 -8.5102077786167118e-01  -2.5764030794028794e-02 2.4193619701073005e-02 -9.2158357043044903e-01  0.0000000000000000e+00 0.0000000000000000e+00 0.0000000000000000e+00  -3.3411236567332139e-03 4.5578556097309361e-04 -4.9628115835380860e-03  -6.5934384143606717e-03 9.8464550610507162e-04 -1.8717253356153103e-02  -9.6111622397632816e-03 1.6851578807728076e-03 -4.0953956717919245e-02  -1.2355416117564758e-02 2.5490791028363580e-03 -7.0947032369177057e-02  -1.4822620599376914e-02 3.5679125466035952e-03 -1.0794705649927562e-01  -1.7015497760531080e-02 4.7280823391254844e-03 -1.5120785375577880e-01  -1.8939153714661656e-02 6.0134621538338751e-03 -1.9999369417589324e-01  -2.0600814358659850e-02 7.4072333055772450e-03 -2.5358528880163084e-01  -2.2009957853030195e-02 8.8928064553767169e-03 -3.1128588385580513e-01  -2.3178497501011978e-02 1.0454284292848370e-02 -3.7242773023493536e-01  -2.4120957396930518e-02 1.2076751072167586e-02 -4.3637899092132976e-01  -2.4854627859708503e-02 1.3746503293713590e-02 -5.0255107313534098e-01  -2.5399696612367430e-02 1.5451262767080778e-02 -5.7040633680768438e-01  -2.5779354573581895e-02 1.7180385998321491e-02 -6.3946611654457253e-01  -2.6019876514858788e-02 1.8925073228481422e-02 -7.0931899040387136e-01  -2.6150673672444443e-02 2.0678579971017561e-02 -7.7962922926125722e-01  -2.6204307679643692e-02 2.2436462728067652e-02 -8.5014537762480735e-01  -2.6217155484819961e-02 2.4196810684126466e-02 -9.2070943513411918e-01  0.0000000000000000e+00 0.0000000000000000e+00 0.0000000000000000e+00  -3.3080160060463912e-03 5.9995794789719880e-04 -4.7195724693355375e-03  -6.6223519666347517e-03 1.1488876084136501e-03 -1.8302291247045934e-02  -9.7046549231760062e-03 1.8481959441396705e-03 -4.0426237082603816e-02  -1.2505844998035101e-02 2.7016765813707038e-03 -7.0335692791701418e-02  -1.5023627363745747e-02 3.7064629649000529e-03 -1.0726927045185727e-01  -1.7261637031390924e-02 4.8513105659754620e-03 -1.5047571311979330e-01  -1.9225351617906259e-02 6.1211427883073443e-03 -1.9921706706343151e-01  -2.0922187135047399e-02 7.4996454495075623e-03 -2.5277289534209263e-01  -2.2361773527263162e-02 8.9705173726094874e-03 -3.1044565385486433e-01  -2.3556187171013397e-02 1.0518070173249126e-02 -3.7156687787042297e-01  -2.4520146629799920e-02 1.2127571790308668e-02 -4.3550397787846112e-01  -2.5271177792881901e-02 1.3785497373015047e-02 -5.0166752725274955e-01  -2.5829750454687002e-02 1.5479749199818127e-02 -5.6951895272687414e-01  -2.6219387580880202e-02 1.7199867720478604e-02 -6.3857854925694491e-01  -2.6466749126049120e-02 1.8937240289006931e-02 -7.0843374687646632e-01  -2.6601697580848793e-02 2.0685309279765429e-02 -7.7874756328844386e-01  -2.6657326081449186e-02 2.2439820983442604e-02 -8.4926719584861232e-01  -2.6670572965056434e-02 2.4199465187616166e-02 -9.1983331489481335e-01  0.0000000000000000e+00 0.0000000000000000e+00 0.0000000000000000e+00  -3.1757473353440195e-03 7.5745822608630053e-04 -4.3823079909693762e-03  -6.5495422382234056e-03 1.3181997467909736e-03 -1.7778145461009844e-02  -9.7020488026395620e-03 2.0114218347088522e-03 -3.9792588923376657e-02  -1.2567440760901190e-02 2.8523621640655882e-03 -6.9625880842948587e-02  -1.5144261813159593e-02 3.8424694534670112e-03 -1.0650246413752219e-01  -1.7436300849204552e-02 4.9719598602751061e-03 -1.4966472595366978e-01  -1.9449002945320069e-02 6.2264302520962404e-03 -1.9837186553612754e-01  -2.1189768130742987e-02 7.5899206830464389e-03 -2.5190197998481129e-01  -2.2668249238646500e-02 9.0463584260531520e-03 -3.0955654640810304e-01  -2.3896582380242566e-02 1.0580238997496175e-02 -3.7066624502990492e-01  -2.4889583519205880e-02 1.2177002156102927e-02 -4.3459761035942363e-01  -2.5664916572965636e-02 1.3823294785283846e-02 -5.0076026170629473e-01  -2.6243233364024836e-02 1.5507194575768999e-02 -5.6861457132552484e-01  -2.6648286068377582e-02 1.7218421725000266e-02 -6.3767967106249435e-01  -2.6907014496475201e-02 1.8948547790789645e-02 -7.0754171685748868e-01  -2.7049617399858693e-02 2.0691208004920324e-02 -7.7786234168285051e-01  -2.7109671322225345e-02 2.2442313845723611e-02 -8.4838720680236934e-01  -2.7124356612109941e-02 2.4201252821211106e-02 -9.1895565141646107e-01  0.0000000000000000e+00 0.0000000000000000e+00 0.0000000000000000e+00  -1.5733323097427421e-03 -5.7757237715163935e-05 -4.8657115257448010e-03  -2.9824700293199276e-03 3.4821334859433335e-04 -1.9086141449719905e-02  -4.2613724207599792e-03 9.7848747092484480e-04 -4.1856698886708052e-02  -5.4206732165499151e-03 1.8080558901936905e-03 -7.2366100945693734e-02  -6.4625179474392348e-03 2.8108919572375187e-03 -1.0984525142306849e-01  -7.3880824023382242e-03 3.9654723228954589e-03 -1.5354133874671477e-01  -8.1994060027762421e-03 5.2522370784656028e-03 -2.0271641557857689e-01  -8.8995405337085939e-03 6.6526952035188824e-03 -2.5665085989601288e-01  -9.4925578681582991e-03 8.1491877692702313e-03 -3.1464854949579552e-01  -9.9835916321689699e-03 9.7249137039473691e-03 -3.7604298667441777e-01  -1.0378897839172459e-02 1.1364057818816494e-02 -4.4020409030907909e-01  -1.0685916027674687e-02 1.3051961991008136e-02 -5.0654550188225789e-01  -1.0913323041176495e-02 1.4775317357137137e-02 -5.7453230018134571e-01  -1.1071076892303432e-02 1.6522368804266462e-02 -6.4368903978254044e-01  -1.1170451411316932e-02 1.8283128347200826e-02 -7.1360803909369519e-01  -1.1224070574759866e-02 2.0049592054934322e-02 -7.8395785429645948e-01  -1.1245965121116891e-02 2.1815924520494221e-02 -8.5449196427736274e-01  -1.1251318901383303e-02 2.3578751514184836e-02 -9.2505816641725258e-01  0.0000000000000000e+00 0.0000000000000000e+00 0.0000000000000000e+00  -1.5529049545121348e-03 4.7556419539821913e-05 -4.9989475552112660e-03  -3.0442473884645404e-03 4.3343056676352549e-04 -1.9189933852936988e-02  -4.3813570163607962e-03 1.0559063690529929e-03 -4.1857883008198496e-02  -5.5937838408745295e-03 1.8778625313664809e-03 -7.2252884231752856e-02  -6.6834435267153656e-03 2.8731412484967059e-03 -1.0962017610100593e-01  -7.6517364869262460e-03 4.0202625716659621e-03 -1.5321174741597018e-01  -8.5008701787759947e-03 5.2997423205587138e-03 -2.0229135868510303e-01  -9.2340337070201187e-03 6.6931611600352346e-03 -2.5614000838958578e-01  -9.8554428508810278e-03 8.1829306822959625e-03 -3.1406176010029457e-01  -1.0370403616796715e-02 9.7523226446057272e-03 -3.7539009678071772e-01  -1.0785383614332154e-02 1.1385598172349432e-02 -4.3949479313544165e-01  -1.1108078947163926e-02 1.3068178900499196e-02 -5.0578924694269867e-01  -1.1347471678198001e-02 1.4786838648059039e-02 -5.7373819871376686e-01  -1.1513876372341993e-02 1.6529907192184862e-02 -6.4286576738099566e-01  -1.1618975722007359e-02 1.8287483048017472e-02 -7.1276373105880919e-01  -1.1675850452239640e-02 2.0051650947639815e-02 -7.8309998542744896e-01  -1.1699050554339974e-02 2.1816664574598871e-02 -8.5362716833809082e-01  -1.1704815414257880e-02 2.3579017852964929e-02 -9.2419196337625853e-01  0.0000000000000000e+00 0.0000000000000000e+00 0.0000000000000000e+00  -1.5765527148158783e-03 1.1825934806897156e-04 -5.0526019047879064e-03  -3.1179578874937918e-03 5.1009744353608844e-04 -1.9186270946862739e-02  -4.5100736145174637e-03 1.1295079440268977e-03 -4.1757419109622149e-02  -5.7734550600430801e-03 1.9454536787613102e-03 -7.2047287677778085e-02  -6.9094305320181867e-03 2.9338567092885817e-03 -1.0931257641321604e-01  -7.9192403407205916e-03 4.0739004021110078e-03 -1.5280945256588746e-01  -8.8051245162597061e-03 5.3463691246017058e-03 -2.0180320422103146e-01  -9.5703685394265478e-03 6.7329775032604032e-03 -2.5557534020544070e-01  -1.0219325393677805e-02 8.2162283560614727e-03 -3.1343001259390330e-01  -1.0757479824501181e-02 9.7794723815270625e-03 -3.7470058739506518e-01  -1.1191522533802442e-02 1.1407047671883927e-02 -4.3875659383389337e-01  -1.1529419692162460e-02 1.3084454154327192e-02 -5.0501108053019339e-01  -1.1780472762936501e-02 1.4798545990291243e-02 -5.7292834068486154e-01  -1.1955367018406443e-02 1.6537734940369985e-02 -6.4203194617317993e-01  -1.2066207562260772e-02 1.8292202054594142e-02 -7.1191302352222074e-01  -1.2126543008783928e-02 2.0054115791999474e-02 -7.8223870345388113e-01  -1.2151427879382073e-02 2.1817824404277326e-02 -8.5276071849639101e-01  -1.2157804067558748e-02 2.3579805671155561e-02 -9.2332459067405481e-01  0.0000000000000000e+00 0.0000000000000000e+00 0.0000000000000000e+00  -1.6129985334688817e-03 1.7796414911130310e-04 -5.0327716112689496e-03  -3.2024555262006055e-03 5.8235976781311437e-04 -1.9078304516527780e-02  -4.6479250094534248e-03 1.2025239100968931e-03 -4.1549913015527698e-02  -5.9612673084885161e-03 2.0140599550222209e-03 -7.1741197419064137e-02  -7.1425933829090144e-03 2.9960704572749987e-03 -1.0891389563667833e-01  -8.1929599091563506e-03 4.1291183973102500e-03 -1.5232629269588388e-01  -9.1146603176749559e-03 5.3945155371220117e-03 -2.0124447661374523e-01  -9.9110895409303835e-03 6.7742031140639054e-03 -2.5495016013636590e-01  -1.0586748682687700e-02 8.2508090051815319e-03 -3.1274741114917298e-01  -1.1147311798009702e-02 9.8077760054713827e-03 -3.7396934869358495e-01  -1.1599703446782079e-02 1.1429524815234370e-02 -4.3798513830961350e-01  -1.1952170921385551e-02 1.3101636530460967e-02 -5.0420736255867094e-01  -1.2214346375556512e-02 1.4811047518393969e-02 -5.7209974862273827e-01  -1.2397297255158526e-02 1.6546252928925729e-02 -6.4118520069981733e-01  -1.2513563315131333e-02 1.8297516974709903e-02 -7.1105407325788006e-01  -1.2577175163032889e-02 2.0057090683427956e-02 -7.8137261785131273e-01  -1.2603690150472106e-02 2.1819421711268910e-02 -8.5189156734641447e-01  -1.2610628623708387e-02 2.3581110225500905e-02 -9.2245519408992760e-01  0.0000000000000000e+00 0.0000000000000000e+00 0.0000000000000000e+00  -1.6474280953824765e-03 2.3746992703652635e-04 -4.9465438595802727e-03  -3.2887840448230419e-03 6.5515878847898466e-04 -1.8871210614983258e-02  -4.7885114991888644e-03 1.2775875908896256e-03 -4.1236512044383916e-02  -6.1520649513680343e-03 2.0853519499622153e-03 -7.1333858188692020e-02  -7.3786286430150881e-03 3.0610731642369874e-03 -1.0842266949896424e-01  -8.4693254197439043e-03 4.1869801926323943e-03 -1.5176061148385997e-01  -9.4265782959147507e-03 5.4450647819955424e-03 -2.0061354163862410e-01  -1.0253917819145716e-02 6.8175586620459784e-03 -2.5426293874215955e-01  -1.0956004179002950e-02 8.2872412780223073e-03 -3.1201256088942070e-01  -1.1538706525518133e-02 9.8376593811530227e-03 -3.7319512902529178e-01  -1.2009187115962426e-02 1.1453322603839296e-02 -4.3717931800004312e-01  -1.2375977527914602e-02 1.3119897512788170e-02 -5.0337712326081430e-01  -1.2649043587674901e-02 1.4824406306057764e-02 -5.7125158477343108e-01  -1.2839837946962330e-02 1.6555430994030555e-02 -6.4032481638265659e-01  -1.2961339116648308e-02 1.8303322263540957e-02 -7.1018627746846452e-01  -1.3028069200354549e-02 2.0060415276348467e-02 -7.8050122130402677e-01  -1.3056099115364797e-02 2.1821261101421852e-02 -8.5101927421090529e-01  -1.3063490493749904e-02 2.3582703162622443e-02 -9.2158341041160430e-01  0.0000000000000000e+00 0.0000000000000000e+00 0.0000000000000000e+00  -1.6738926709914056e-03 3.0496660753777876e-04 -4.7920051103710250e-03  -3.3708669509267177e-03 7.3330951746221102e-04 -1.8564974742919092e-02  -4.9267659550582751e-03 1.3571470969491477e-03 -4.0817803133894388e-02  -6.3413336086706028e-03 2.1607059935335061e-03 -7.0825409292248717e-02  -7.6135527851381940e-03 3.1297867179686792e-03 -1.0783869821321601e-01  -8.7448848457944185e-03 4.2481847514436758e-03 -1.5111206104458769e-01  -9.7379478371823827e-03 5.4985731271874876e-03 -1.9991000434273407e-01  -1.0596423716112602e-02 6.8634873404382415e-03 -2.5351327981965460e-01  -1.1325135554297767e-02 8.3258677759464987e-03 -3.1122508476199578e-01  -1.1930147150719286e-02 9.8693714261669663e-03 -3.7237758039419289e-01  -1.2418856174655137e-02 1.1478601761680913e-02 -4.3633881973991551e-01  -1.2800075416858587e-02 1.3139315271731926e-02 -5.0252008846139384e-01  -1.3084100999586951e-02 1.4838624394798631e-02 -5.7038361739400045e-01  -1.3282767328763082e-02 1.6565202633767016e-02 -6.3945060672592646e-01  -1.3409488854679947e-02 1.8309492355948302e-02 -7.0930949615056793e-01  -1.3479283564305134e-02 2.0063917071053438e-02 -7.7962441639715685e-01  -1.3508758139823267e-02 2.1823132705581807e-02 -8.5014377364972360e-01  -1.3516499849106063e-02 2.3584317989787586e-02 -9.2070921553797469e-01  0.0000000000000000e+00 0.0000000000000000e+00 0.0000000000000000e+00  -1.6879195734689648e-03 3.9037406259182720e-04 -4.5558722238600363e-03  -3.4421331582988983e-03 8.2332589729116549e-04 -1.8152486616583131e-02  -5.0556767670535919e-03 1.4455134261447502e-03 -4.0290836123916401e-02  -6.5222048919951299e-03 2.2432048610287760e-03 -7.0214227712330740e-02  -7.8409953727995464e-03 3.2046140947401039e-03 -1.0716082512171361e-01  -9.0139046604820871e-03 4.3147045126274647e-03 -1.5037971842570635e-01  -1.0043715075169074e-02 5.5566850654425876e-03 -1.9913311064885791e-01  -1.0934235789158290e-02 6.9133504671532045e-03 -2.5270057736208318e-01  -1.1690437534005395e-02 8.3677909160424068e-03 -3.1038451598259442e-01  -1.2318566878355952e-02 9.9037738170543090e-03 