<?xml version="1.0"?>
<VTKFile type="UnstructuredGrid"  version="0.1"  >
<UnstructuredGrid>
<Piece  NumberOfPoints="760" NumberOfCells="3024">
<Points>
<DataArray  type="Float64"  NumberOfComponents="3"  format="ascii">0 0 0  0.05555555555555555 0 0  0.1111111111111111 0 0  0.1666666666666667 0 0  0.2222222222222222 0 0  0.2777777777777778 0 0  0.3333333333333333 0 0  0.3888888888888889 0 0  0.4444444444444444 0 0  0.5 0 0  0.5555555555555556 0 0  0.6111111111111112 0 0  0.6666666666666666 0 0  0.7222222222222222 0 0  0.7777777777777778 0 0  0.8333333333333334 0 0  0.8888888888888888 0 0  0.9444444444444444 0 0  1 0 0  0 0.01428571428571429 0  0.05555555555555555 0.01428571428571429 0  0.1111111111111111 0.01428571428571429 0  0.1666666666666667 0.01428571428571429 0  0.2222222222222222 0.01428571428571429 0  0.2777777777777778 0.01428571428571429 0  0.3333333333333333 0.01428571428571429 0  0.3888888888888889 0.01428571428571429 0  0.4444444444444444 0.01428571428571429 0  0.5 0.01428571428571429 0  0.5555555555555556 0.01428571428571429 0  0.6111111111111112 0.01428571428571429 0  0.6666666666666666 0.01428571428571429 0  0.7222222222222222 0.01428571428571429 0  0.7777777777777778 0.01428571428571429 0  0.8333333333333334 0.01428571428571429 0  0.8888888888888888 0.01428571428571429 0  0.9444444444444444 0.01428571428571429 0  1 0.01428571428571429 0  0 0.02857142857142857 0  0.05555555555555555 0.02857142857142857 0  0.1111111111111111 0.02857142857142857 0  0.1666666666666667 0.02857142857142857 0  0.2222222222222222 0.02857142857142857 0  0.2777777777777778 0.02857142857142857 0  0.3333333333333333 0.02857142857142857 0  0.3888888888888889 0.02857142857142857 0  0.4444444444444444 0.02857142857142857 0  0.5 0.02857142857142857 0  0.5555555555555556 0.02857142857142857 0  0.6111111111111112 0.02857142857142857 0  0.6666666666666666 0.02857142857142857 0  0.7222222222222222 0.02857142857142857 0  0.7777777777777778 0.02857142857142857 0  0.8333333333333334 0.02857142857142857 0  0.8888888888888888 0.02857142857142857 0  0.9444444444444444 0.02857142857142857 0  1 0.02857142857142857 0  0 0.04285714285714286 0  0.05555555555555555 0.04285714285714286 0  0.1111111111111111 0.04285714285714286 0  0.1666666666666667 0.04285714285714286 0  0.2222222222222222 0.04285714285714286 0  0.2777777777777778 0.04285714285714286 0  0.3333333333333333 0.04285714285714286 0  0.3888888888888889 0.04285714285714286 0  0.4444444444444444 0.04285714285714286 0  0.5 0.04285714285714286 0  0.5555555555555556 0.04285714285714286 0  0.6111111111111112 0.04285714285714286 0  0.6666666666666666 0.04285714285714286 0  0.7222222222222222 0.04285714285714286 0  0.7777777777777778 0.04285714285714286 0  0.8333333333333334 0.04285714285714286 0  0.8888888888888888 0.04285714285714286 0  0.9444444444444444 0.04285714285714286 0  1 0.04285714285714286 0  0 0.05714285714285715 0  0.05555555555555555 0.05714285714285715 0  0.1111111111111111 0.05714285714285715 0  0.1666666666666667 0.05714285714285715 0  0.2222222222222222 0.05714285714285715 0  0.2777777777777778 0.05714285714285715 0  0.3333333333333333 0.05714285714285715 0  0.3888888888888889 0.05714285714285715 0  0.4444444444444444 0.05714285714285715 0  0.5 0.05714285714285715 0  0.5555555555555556 0.05714285714285715 0  0.6111111111111112 0.05714285714285715 0  0.6666666666666666 0.05714285714285715 0  0.7222222222222222 0.05714285714285715 0  0.7777777777777778 0.05714285714285715 0  0.8333333333333334 0.05714285714285715 0  0.8888888888888888 0.05714285714285715 0  0.9444444444444444 0.05714285714285715 0  1 0.05714285714285715 0  0 0.07142857142857142 0  0.05555555555555555 0.07142857142857142 0  0.1111111111111111 0.07142857142857142 0  0.1666666666666667 0.07142857142857142 0  0.2222222222222222 0.07142857142857142 0  0.2777777777777778 0.07142857142857142 0  0.3333333333333333 0.07142857142857142 0  0.3888888888888889 0.07142857142857142 0  0.4444444444444444 0.07142857142857142 0  0.5 0.07142857142857142 0  0.5555555555555556 0.07142857142857142 0  0.6111111111111112 0.07142857142857142 0  0.6666666666666666 0.07142857142857142 0  0.7222222222222222 0.07142857142857142 0  0.7777777777777778 0.07142857142857142 0  0.8333333333333334 0.07142857142857142 0  0.8888888888888888 0.07142857142857142 0  0.9444444444444444 0.07142857142857142 0  1 0.07142857142857142 0  0 0.08571428571428573 0  0.05555555555555555 0.08571428571428573 0  0.1111111111111111 0.08571428571428573 0  0.1666666666666667 0.08571428571428573 0  0.2222222222222222 0.08571428571428573 0  0.2777777777777778 0.08571428571428573 0  0.3333333333333333 0.08571428571428573 0  0.3888888888888889 0.08571428571428573 0  0.4444444444444444 0.08571428571428573 0  0.5 0.08571428571428573 0  0.5555555555555556 0.08571428571428573 0  0.6111111111111112 0.08571428571428573 0  0.6666666666666666 0.08571428571428573 0  0.7222222222222222 0.08571428571428573 0  0.7777777777777778 0.08571428571428573 0  0.8333333333333334 0.08571428571428573 0  0.8888888888888888 0.08571428571428573 0  0.9444444444444444 0.08571428571428573 0  1 0.08571428571428573 0  0 0.1 0  0.05555555555555555 0.1 0  0.1111111111111111 0.1 0  0.1666666666666667 0.1 0  0.2222222222222222 0.1 0  0.2777777777777778 0.1 0  0.3333333333333333 0.1 0  0.3888888888888889 0.1 0  0.4444444444444444 0.1 0  0.5 0.1 0  0.5555555555555556 0.1 0  0.6111111111111112 0.1 0  0.6666666666666666 0.1 0  0.7222222222222222 0.1 0  0.7777777777777778 0.1 0  0.8333333333333334 0.1 0  0.8888888888888888 0.1 0  0.9444444444444444 0.1 0  1 0.1 0  0 0 0.01  0.05555555555555555 0 0.01  0.1111111111111111 0 0.01  0.1666666666666667 0 0.01  0.2222222222222222 0 0.01  0.2777777777777778 0 0.01  0.3333333333333333 0 0.01  0.3888888888888889 0 0.01  0.4444444444444444 0 0.01  0.5 0 0.01  0.5555555555555556 0 0.01  0.6111111111111112 0 0.01  0.6666666666666666 0 0.01  0.7222222222222222 0 0.01  0.7777777777777778 0 0.01  0.8333333333333334 0 0.01  0.8888888888888888 0 0.01  0.9444444444444444 0 0.01  1 0 0.01  0 0.01428571428571429 0.01  0.05555555555555555 0.01428571428571429 0.01  0.1111111111111111 0.01428571428571429 0.01  0.1666666666666667 0.01428571428571429 0.01  0.2222222222222222 0.01428571428571429 0.01  0.2777777777777778 0.01428571428571429 0.01  0.3333333333333333 0.01428571428571429 0.01  0.3888888888888889 0.01428571428571429 0.01  0.4444444444444444 0.01428571428571429 0.01  0.5 0.01428571428571429 0.01  0.5555555555555556 0.01428571428571429 0.01  0.6111111111111112 0.01428571428571429 0.01  0.6666666666666666 0.01428571428571429 0.01  0.7222222222222222 0.01428571428571429 0.01  0.7777777777777778 0.01428571428571429 0.01  0.8333333333333334 0.01428571428571429 0.01  0.8888888888888888 0.01428571428571429 0.01  0.9444444444444444 0.01428571428571429 0.01  1 0.01428571428571429 0.01  0 0.02857142857142857 0.01  0.05555555555555555 0.02857142857142857 0.01  0.1111111111111111 0.02857142857142857 0.01  0.1666666666666667 0.02857142857142857 0.01  0.2222222222222222 0.02857142857142857 0.01  0.2777777777777778 0.02857142857142857 0.01  0.3333333333333333 0.02857142857142857 0.01  0.3888888888888889 0.02857142857142857 0.01  0.4444444444444444 0.02857142857142857 0.01  0.5 0.02857142857142857 0.01  0.5555555555555556 0.02857142857142857 0.01  0.6111111111111112 0.02857142857142857 0.01  0.6666666666666666 0.02857142857142857 0.01  0.7222222222222222 0.02857142857142857 0.01  0.7777777777777778 0.02857142857142857 0.01  0.8333333333333334 0.02857142857142857 0.01  0.8888888888888888 0.02857142857142857 0.01  0.9444444444444444 0.02857142857142857 0.01  1 0.02857142857142857 0.01  0 0.04285714285714286 0.01  0.05555555555555555 0.04285714285714286 0.01  0.1111111111111111 0.04285714285714286 0.01  0.1666666666666667 0.04285714285714286 0.01  0.2222222222222222 0.04285714285714286 0.01  0.2777777777777778 0.04285714285714286 0.01  0.3333333333333333 0.04285714285714286 0.01  0.3888888888888889 0.04285714285714286 0.01  0.4444444444444444 0.04285714285714286 0.01  0.5 0.04285714285714286 0.01  0.5555555555555556 0.04285714285714286 0.01  0.6111111111111112 0.04285714285714286 0.01  0.6666666666666666 0.04285714285714286 0.01  0.7222222222222222 0.04285714285714286 0.01  0.7777777777777778 0.04285714285714286 0.01  0.8333333333333334 0.04285714285714286 0.01  0.8888888888888888 0.04285714285714286 0.01  0.9444444444444444 0.04285714285714286 0.01  1 0.04285714285714286 0.01  0 0.05714285714285715 0.01  0.05555555555555555 0.05714285714285715 0.01  0.1111111111111111 0.05714285714285715 0.01  0.1666666666666667 0.05714285714285715 0.01  0.2222222222222222 0.05714285714285715 0.01  0.2777777777777778 0.05714285714285715 0.01  0.3333333333333333 0.05714285714285715 0.01  0.3888888888888889 0.05714285714285715 0.01  0.4444444444444444 0.05714285714285715 0.01  0.5 0.05714285714285715 0.01  0.5555555555555556 0.05714285714285715 0.01  0.6111111111111112 0.05714285714285715 0.01  0.6666666666666666 0.05714285714285715 0.01  0.7222222222222222 0.05714285714285715 0.01  0.7777777777777778 0.05714285714285715 0.01  0.8333333333333334 0.05714285714285715 0.01  0.8888888888888888 0.05714285714285715 0.01  0.9444444444444444 0.05714285714285715 0.01  1 0.05714285714285715 0.01  0 0.07142857142857142 0.01  0.05555555555555555 0.07142857142857142 0.01  0.1111111111111111 0.07142857142857142 0.01  0.1666666666666667 0.07142857142857142 0.01  0.2222222222222222 0.07142857142857142 0.01  0.2777777777777778 0.07142857142857142 0.01  0.3333333333333333 0.07142857142857142 0.01  0.3888888888888889 0.07142857142857142 0.01  0.4444444444444444 0.07142857142857142 0.01  0.5 0.07142857142857142 0.01  0.5555555555555556 0.07142857142857142 0.01  0.6111111111111112 0.07142857142857142 0.01  0.6666666666666666 0.07142857142857142 0.01  0.7222222222222222 0.07142857142857142 0.01  0.7777777777777778 0.07142857142857142 0.01  0.8333333333333334 0.07142857142857142 0.01  0.8888888888888888 0.07142857142857142 0.01  
[...]
<PointData  Vectors="f_33"> 
<DataArray  type="Float64"  Name="f_33"  NumberOfComponents="3" format="ascii">0.0000000000000000e+00 0.0000000000000000e+00 0.0000000000000000e+00  -2.9540320648509320e-03 -1.6493022918128138e-04 -4.2859913266256443e-03  -5.5100852013868704e-03 2.0407452242285156e-04 -1.6433015148166173e-02  -7.8413660099481350e-03 7.9901180597950121e-04 -3.5884599584941897e-02  -9.9517596813222219e-03 1.5659655546063603e-03 -6.1943779744388222e-02  -1.1844812359874829e-02 2.4754348271110995e-03 -9.3950605064170342e-02  -1.3523443741822343e-02 3.5068715295877057e-03 -1.3125927842049931e-01  -1.4991985019785027e-02 4.6429629345505026e-03 -1.7323719222148617e-01  -1.6256494641403205e-02 5.8678705401262327e-03 -2.1926801127330686e-01  -1.7324859182666272e-02 7.1666992819529474e-03 -2.6875618811163504e-01  -1.8206900604092840e-02 8.5254020751535289e-03 -3.2113224106960342e-01  -1.8914486735499586e-02 9.9308454804189362e-03 -3.7585854862020129e-01  -1.9461630429495697e-02 1.1370938538124618e-02 -4.3243552808366786e-01  -1.9864571734316844e-02 1.2834788446402026e-02 -4.9040811018534219e-01  -2.0141842184986502e-02 1.4312869490972682e-02 -5.4937244089587767e-01  -2.0314313513501436e-02 1.5797201142750662e-02 -6.0898275360735654e-01  -2.0405247461388217e-02 1.7281534234690143e-02 -6.6895836687952681e-01  -2.0440399302081007e-02 1.8761532827401301e-02 -7.2909084300151972e-01  -2.0447923031008459e-02 2.0235098639317464e-02 -7.8925207168791034e-01  0.0000000000000000e+00 0.0000000000000000e+00 0.0000000000000000e+00  -2.8269159482145925e-03 -1.9402849118211380e-05 -4.4126093726048017e-03  -5.4507633991408636e-03 3.3293535487941619e-04 -1.6522794894263625e-02  -7.8404244832614902e-03 9.1557509099880687e-04 -3.5885521388534618e-02  -1.0005099352123493e-02 1.6706569393356884e-03 -6.1846596008284911e-02  -1.1948032430475444e-02 2.5684603866153676e-03 -9.3757802951381114e-02  -1.3672157768684055e-02 3.5884662689732207e-03 -1.3097726755778055e-01  -1.5181837249606540e-02 4.7134471592925331e-03 -1.7287378225699115e-01  -1.6483154407067113e-02 5.9276617115947994e-03 -2.1883151557387048e-01  -1.7584029258042252e-02 7.2163184202536524e-03 -2.6825506198327542e-01  -1.8494338559311905e-02 8.5654799483891805e-03 -3.2057490879642497e-01  -1.9226033908178827e-02 9.9621282129064587e-03 -3.7525329680921710e-01  -1.9793245613278658e-02 1.1394292258688725e-02 -4.3179042028341980e-01  -2.0212368264046005e-02 1.2851202840031503e-02 -4.8973090615868686e-01  -2.0502127674032162e-02 1.4323460092099616e-02 -5.4867051420751456e-01  -2.0683630561307748e-02 1.5803210088491421e-02 -6.0826300366195352e-01  -2.0780407807574123e-02 1.7284329206871309e-02 -6.6822711778959643e-01  -2.0818527932692590e-02 1.8762590901915888e-02 -7.2835369605457079e-01  -2.0827042445209259e-02 2.0235642071790044e-02 -7.8851355424764213e-01  0.0000000000000000e+00 0.0000000000000000e+00 0.0000000000000000e+00  -2.8248941786217950e-03 9.1946579246711920e-05 -4.4630917464364740e-03  -5.4819403594587148e-03 4.5938133658212862e-04 -1.6525121869104004e-02  -7.9169881339248762e-03 1.0378781155085236e-03 -3.5802395166378044e-02  -1.0126285602442667e-02 1.7833311599938450e-03 -6.1672611797368666e-02  -1.2110605708371148e-02 2.6697397484093943e-03 -9.3496241766941601e-02  -1.3872284568017614e-02 3.6779245567669116e-03 -1.3063462048789251e-01  -1.5415545958149203e-02 4.7911768069989940e-03 -1.7245771399258689e-01  -1.6746480919746239e-02 5.9940035035358835e-03 -2.1835007686699912e-01  -1.7873083047343693e-02 7.2717743475904338e-03 -2.6771635594533844e-01  -1.8805348448018171e-02 8.6106866038695370e-03 -3.1998692391854444e-01  -1.9555388379639355e-02 9.9978506667089753e-03 -3.7462379986319189e-01  -2.0137532303655239e-02 1.1421424607301243e-02 -4.3112686883651841e-01  -2.0568414243472267e-02 1.2870770423719627e-02 -4.8904036572799825e-01  -2.0867040867051954e-02 1.4336621240758733e-02 -5.4795957454219735e-01  -2.1054841057739374e-02 1.5811255838959811e-02 -6.0753769158168269e-01  -2.1155701710181763e-02 1.7288680731332481e-02 -6.6749280271859079e-01  -2.1196061475105957e-02 1.8764797523774916e-02 -7.2761497276783949e-01  -2.1205417343682573e-02 2.0237199283023539e-02 -7.8777399405015724e-01  0.0000000000000000e+00 0.0000000000000000e+00 0.0000000000000000e+00  -2.8432668549093557e-03 1.8850336055444719e-04 -4.4496794468374462e-03  -5.5336977641135951e-03 5.8206260028833016e-04 -1.6437003277245617e-02  -8.0126872622731712e-03 1.1628025769520377e-03 -3.5628036278976941e-02  -1.0264997786834415e-02 1.9007874976064948e-03 -6.1413232838771308e-02  -1.2288893111460371e-02 2.7762922068031875e-03 -9.3157367889889028e-02  -1.4086253466850886e-02 3.7725049924138402e-03 -1.3022338852816784e-01  -1.5661241217629733e-02 4.8736414247243639e-03 -1.7198184175078171e-01  -1.7019992588795690e-02 6.0646117920105189e-03 -2.1781740948321213e-01  -1.8170599571166152e-02 7.3310074241046564e-03 -2.6713464342787657e-01  -1.9123198661224822e-02 8.6591856676594310e-03 -3.1936369100102724e-01  -1.9890081042576592e-02 1.0036397931548284e-02 -3.7396624975035475e-01  -2.0485795754963811e-02 1.1450939136008790e-02 -4.3044179759076112e-01  -2.0927237064020613e-02 1.2892308717260596e-02 -4.8833407855903693e-01  -2.1233713729316935e-02 1.4351378457762118e-02 -5.4723780101412411e-01  -2.1426999170551901e-02 1.5820565050924648e-02 -6.0680549898554370e-01  -2.1531361268023987e-02 1.7294009376576686e-02 -6.6675450686785775e-01  -2.1573621034682564e-02 1.8767751512258280e-02 -7.2687403481293689e-01  -2.1583663264579458e-02 2.0239526723624352e-02 -7.8703279334350207e-01  0.0000000000000000e+00 0.0000000000000000e+00 0.0000000000000000e+00  -2.8563497158745161e-03 2.8329887252082607e-04 -4.3774254590713381e-03  -5.5869670314313878e-03 7.0468259219209103e-04 -1.6262730431140664e-02  -8.1126446877942248e-03 1.2900786111346811e-03 -3.5362857015143682e-02  -1.0408735981517665e-02 2.0217083537334801e-03 -6.1067403812588197e-02  -1.2472200426051220e-02 2.8865599195284372e-03 -9.2739619269307780e-02  -1.4304954158375941e-02 3.8706633232493681e-03 -1.2974190620256934e-01  -1.5911276111894815e-02 4.9593906031193749e-03 -1.7144456039457404e-01  -1.7297412237903872e-02 6.1381550594544762e-03 -2.1723203117090598e-01  -1.8471578612205709e-02 7.3928114932883121e-03 -2.6650858674680578e-01  -1.9444063861595664e-02 8.7098957249335928e-03 -3.1870402197317677e-01  -2.0227345699779124e-02 1.0076809473524052e-02 -3.7327960585696707e-01  -2.0836197559673877e-02 1.1481990411483269e-02 -4.2973430759594411e-01  -2.1287778253729673e-02 1.2915080162236357e-02 -4.8761127920945929e-01  -2.1601702968261419e-02 1.4367093717566958e-02 -5.4650455148332633e-01  -2.1800095158001534e-02 1.5830590514271544e-02 -6.0606589438662539e-01  -2.1907614849831097e-02 1.7299850145497744e-02 -6.6601179279253164e-01  -2.1951483241483837e-02 1.8771059444335360e-02 -7.2613051311602239e-01  -2.1962012100551088e-02 2.0242251832967025e-02 -7.8628965665018702e-01  0.0000000000000000e+00 0.0000000000000000e+00 0.0000000000000000e+00  -2.8548382351234630e-03 3.8741798906003752e-04 -4.2436725949798774e-03  -5.6326306629414817e-03 8.3323518928984832e-04 -1.6001761870246455e-02  -8.2088753161748008e-03 1.4218892105356295e-03 -3.5006577237913145e-02  -1.0550399860474844e-02 2.1466262683059491e-03 -6.0634555373299655e-02  -1.2654255063167261e-02 3.0004702058214071e-03 -9.2242259739416979e-02  -1.4522925371466900e-02 3.9721077444278977e-03 -1.2918940450170910e-01  -1.6160976227752290e-02 5.0480523786442574e-03 -1.7084513692138151e-01  -1.7574819645241727e-02 6.2142318830102645e-03 -2.1659327467674039e-01  -1.8772814181461827e-02 7.4567743626067972e-03 -2.6583759577096988e-01  -1.9765404662561041e-02 8.7624007629773862e-03 -3.1800740719017756e-01  -2.0565253732526934e-02 1.0118668107532442e-02 -3.7256343878503623e-01  -2.1187355415478174e-02 1.1514161194241970e-02 -4.2900404759112143e-01  -2.1649128477522737e-02 1.2938668101748355e-02 -4.8687169118131302e-01  -2.1970489733442067e-02 1.4383351577514171e-02 -5.4575961959667840e-01  -2.2173908424431656e-02 1.5840919357435652e-02 -6.0531873490848442e-01  -2.2284439866793602e-02 1.7305796066140695e-02 -6.6526457000252592e-01  -2.2329729921818933e-02 1.8774323637454626e-02 -7.2538435404571211e-01  -2.2340572388935699e-02 2.0244950360128525e-02 -7.8554456997500255e-01  0.0000000000000000e+00 0.0000000000000000e+00 0.0000000000000000e+00  -2.8255537235596980e-03 5.1047785452353197e-04 -4.0356929704284880e-03  -5.6553792306973764e-03 9.7339936128400218e-04 -1.5647100886353946e-02  -8.2859066087252360e-03 1.5609754411590659e-03 -3.4555693849324415e-02  -1.0675249127545906e-02 2.2767423560233202e-03 -6.0112392440424656e-02  -1.2821554123882098e-02 3.1185405635743759e-03 -9.1663522766745442e-02  -1.4728086199511423e-02 4.0770525698148570e-03 -1.2856444493860530e-01  -1.6399728829777086e-02 5.1396914739965886e-03 -1.7018239454134670e-01  -1.7843057195625373e-02 6.2928178566383662e-03 -2.1590019701681670e-01  -1.9066560273034702e-02 7.5228067735146611e-03 -2.6512094429204158e-01  -2.0080822754278482e-02 8.8165573423873329e-03 -3.1727332228032307e-01  -2.0898673489161388e-02 1.0161782075850235e-02 -3.7181741014844000e-01  -2.1535307005503015e-02 1.1547215853104127e-02 -4.2825084730053209e-01  -2.2008381133858269e-02 1.2962797353830158e-02 -4.8611529193047764e-01  -2.2338092938219218e-02 1.4399841987343313e-02 -5.4500310731584301e-01  -2.2547235471938314e-02 1.5851212131012302e-02 -6.0456421998681331e-01  -2.2661242106773834e-02 1.7311486381340731e-02 -6.6451310126669605e-01  -2.2708202584011520e-02 1.8777163181183831e-02 -7.2463584189835961e-01  -2.2719378105447396e-02 2.0247194528414541e-02 -7.8479780388018006e-01  0.0000000000000000e+00 0.0000000000000000e+00 0.0000000000000000e+00  -2.7114143817483761e-03 6.4485675228340871e-04 -3.7473793306793553e-03  -5.5911328646535401e-03 1.1178228693842162e-03 -1.5199199852510252e-02  -8.2807948921315312e-03 1.7001538270496270e-03 -3.4014392141626201e-02  -1.0724206877441895e-02 2.4051632032541528e-03 -5.9506220682014575e-02  -1.2920230710414496e-02 3.2343827899081168e-03 -9.1008887164113261e-02  -1.4872260709590931e-02 4.1797464836276811e-03 -1.2787230634204941e-01  -1.6585151445688968e-02 5.2292452860896099e-03 -1.6946126786618299e-01  -1.8065463890467637e-02 6.3695440879218490e-03 -2.1515733219916405e-01  -1.9321706560305553e-02 7.5872138296807076e-03 -2.6436274380936231e-01  -2.0364515582920791e-02 8.8693103986609203e-03 -3.1650544880157788e-01  -2.1206803596906982e-02 1.0203691649660481e-02 -3.7104477128417113e-01  -2.1863883478670184e-02 1.1579236631179955e-02 -4.2747753218010914e-01  -2.2353568468202252e-02 1.2986030302184280e-02 -4.8534448921738482e-01  -2.2696250410629781e-02 1.4415537144997095e-02 -5.4423701653986845e-01  -2.2914959057743753e-02 1.5860771668024562e-02 -6.0380396099938860e-01  -2.3035410895934073e-02 1.7316471392597350e-02 -6.6375862386982898e-01  -2.3086101449417484e-02 1.8779269940258352e-02 -7.2388580048159534e-01  -2.3098489626514663e-02 2.0248705192871957e-02 -7.8404973202544526e-01  0.0000000000000000e+00 0.0000000000000000e+00 0.0000000000000000e+00  -1.3485622366130206e-03 -5.1909137684090888e-05 -4.1611067372663950e-03  -2.5561699574862522e-03 2.8907020493787705e-04 -1.6317605414642767e-02  -3.6517048596832096e-03 8.1796442639092476e-04 -3.5778615568332194e-02  -4.6442436729970107e-03 1.5136323177475945e-03 -6.1847594039660503e-02  -5.5356629742885780e-03 2.3540963162538933e-03 -9.3864295791276031e-02  -6.3270414451629016e-03 3.3212371363857017e-03 -1.3118277918990312e-01  -7.0202182833864740e-03 4.3986209751579420e-03 -1.7317032347377054e-01  -7.6179154114944881e-03 5.5707351189139874e-03 -2.1921049874774784e-01  -8.1237383345002436e-03 6.8227846654099252e-03 -2.6870766791336237e-01  -8.5422047035081834e-03 8.1407123306427454e-03 -3.2109225801409141e-01  -8.8787882199837243e-03 9.5113042613382791e-03 -3.7582655240462376e-01  -9.1399626566810097e-03 1.0922331325469025e-02 -4.3241086923884292e-01  -9.3332398198303860e-03 1.2362707016795198e-02 -4.9039003649512941e-01  -9.4671997503501821e-03 1.3822654657370729e-02 -5.4936009443869349e-01  -9.5515141429988598e-03 1.5293881158272776e-02 -6.0897516828560916e-01  -9.5969707630263589e-03 1.6769752999118509e-02 -6.6895446482917331e-01  -9.6155180539886417e-03 1.8245444067269224e-02 -7.2908942270327459e-01  -9.6200503657222960e-03 1.9718172878393666e-02 -7.8925144585987883e-01  0.0000000000000000e+00 0.0000000000000000e+00 0.0000000000000000e+00  -1.3299964611442363e-03 3.8359258807774158e-05 -4.2748862790297085e-03  -2.6069573460822696e-03 3.6209602797521065e-04 -1.6406137713251591e-02  -3.7513285181905495e-03 8.8427502761382400e-04 -3.5779397616303006e-02  -4.7884204775440909e-03 1.5733877932840228e-03 -6.1750590788737729e-02  -5.7199201680253799e-03 2.4073476704469074e-03 -9.3671729870634296e-02  -6.5470995947101186e-03 3.3680741771303130e-03 -1.3090097684310356e-01  -7.2719424029335988e-03 4.4391994620942479e-03 -1.7280706791178080e-01  -7.8972888029272513e-03 5.6052729388317022e-03 -2.1877409779069468e-01  -8.4268681603613133e-03 6.8515604046012332e-03 -2.6820657974214668e-01  -8.8653459899820514e-03 8.1640667513386764e-03 -3.2053491360551339e-01  -9.2183767194502740e-03 9.5296427535290062e-03 -3.7522124714877658e-01  -9.4926522846055586e-03 1.0936126328475420e-02 -4.3176567690551276e-01  -9.6959428957503913e-03 1.2372500035174877e-02 -4.8971272826137696e-01  -9.8371291990084417e-03 1.3829057730463367e-02 -5.4865805641266341e-01  -9.9262262417445374e-03 1.5297577904210234e-02 -6.0825531373867736e-01  -9.9744038921936919e-03 1.6771500210022300e-02 -6.6822313416214041e-01  -9.9940434052009936e-03 1.8246071929634514e-02 -7.2835223341478317e-01  -9.9989212795610870e-03 1.9718398881304448e-02 -7.8851306610851046e-01  0.0000000000000000e+00 0.0000000000000000e+00 0.0000000000000000e+00  -1.3491930877779492e-03 9.8938328760642171e-05 -4.3206533316211739e-03  -2.6679615620027936e-03 4.2774082731662918e-04 -1.6402870209066812e-02  -3.8584277610116064e-03 9.4725612264374114e-04 -3.5693381390018160e-02  -4.9382127535023421e-03 1.6311910884932467e-03 -6.1574748089795912e-02  -5.9085088166683872e-03 2.4592375796325477e-03 -9.3408780087435597e-02  -6.7704523935202482e-03 3.4138833915344936e-03 -1.3055720963239123e-01  -7.5260557239788563e-03 4.4789913243155925e-03 -1.7239007453188851e-01  -8.1782421634759659e-03 5.6392260737679438e-03 -2.1829189910428909e-01  -8.7308589653684633e-03 6.8799317752400767e-03 -2.6766726354064529e-01  -9.1887245970383620e-03 8.1871806851956004e-03 -3.1994645738193228e-01  -9.5576836022594983e-03 9.5478887545175951e-03 -3.7459140723893958e-01  -9.8446571132479871e-03 1.0949959713944555e-02 -4.3110189957410111e-01  -1.0057685311776374e-02 1.2382443228065415e-02 -4.8902206628204198e-01  -1.0205960975186447e-02 1.3835701266320343e-02 -5.4794708507843204e-01  -1.0299853522657618e-02 1.5301580596988313e-02 -6.0753004357803153e-01  -1.0350923961901218e-02 1.6773589947842105e-02 -6.6748891692459722e-01  -1.0371973840592200e-02 1.8247054723163712e-02 -7.2761364610584423e-01  -1.0377365084998619e-02 1.9719066091901195e-02 -7.8777369850942591e-01  0.0000000000000000e+00 0.0000000000000000e+00 0.0000000000000000e+00  -1.3793772874237848e-03 1.5003383330323972e-04 -4.3036267767694921e-03  -2.7382073157347516e-03 4.8954951608651395e-04 -1.6310498383578079e-02  -3.9733461282774798e-03 1.0096721504504430e-03 -3.5515961181824332e-02  -5.0949704832649791e-03 1.6898037912958998e-03 -6.1313137329452413e-02  -6.1032344520204817e-03 2.5123562173070715e-03 -9.3068141639431543e-02  -6.9991187835152955e-03 3.4609974338849986e-03 -1.3014451300943525e-01  -7.7846822009103598e-03 4.5200420892279672e-03 -1.7191296730536745e-01  -8.4629424264585154e-03 5.6743493275261143e-03 -2.1775819551229295e-01  -9.0378739093059986e-03 6.9093705079645443e-03 -2.6708469673029656e-01  -9.5144570098082172e-03 8.2112564593528354e-03 -3.1932253933997201e-01  -9.8987354232963690e-03 9.5669930937603911e-03 -3.7393332873902579e-01  -1.0197868694292714e-02 1.0964552376585800e-02 -4.3041644308864951e-01  -1.0420176334858413e-02 1.2393052631747880e-02 -4.8831552167806713e-01  -1.0575172716564576e-02 1.3842925102761312e-02 -5.4722516456181747e-01  -1.0673591717466404e-02 1.5306085340020752e-02 -6.0679779495795438e-01  -1.0727397152741203e-02 1.6776110162088888e-02 -6.6675063515028932e-01  -1.0749809377335237e-02 1.8248407248291122e-02 -7.2687277416866869e-01  -1.0755671529150038e-02 1.9720170166153135e-02 -7.8703262003657926e-01  0.0000000000000000e+00 0.0000000000000000e+00 0.0000000000000000e+00  -1.4078592148976691e-03 2.0088282277618975e-04 -4.2298684182195305e-03  -2.8100320182634360e-03 5.5174232084820676e-04 -1.6133450602217211e-02  -4.0906102086128212e-03 1.0737706876795198e-03 -3.5248119999596560e-02  -5.2542860302831245e-03 1.7506501212931804e-03 -6.0965114942585934e-02  -6.3004199227147143e-03 2.5678024004577335e-03 -9.2648564899273603e-02  -7.2300500173254744e-03 3.5103205611378883e-03 -1.2966147336167888e-01  -8.0453467299525776e-03 4.5631015173112485e-03 -1.7137435177008797e-01  -8.7494445898494578e-03 5.7112534613549155e-03 -2.1717168241126877e-01  -9.3464546681000221e-03 6.9403576130745975e-03 -2.6645769001751773e-01  -9.8415241981622392e-03 8.2366534698218620e-03 -3.1866209287256309e-01  -1.0240899325360380e-02 9.5872022518974018e-03 -3.7324606756333573e-01  -1.0551980707005849e-02 1.0980047760817301e-02 -4.2970848215135932e-01  -1.0783369709640955e-02 1.2404379985641043e-02 -4.8759238206893601e-01  -1.0944904844389208e-02 1.3850702301964397e-02 -5.4649168777023749e-01  -1.1047687882912945e-02 1.5311001753143018e-02 -6.0605805626852904e-01  -1.1104093432794853e-02 1.6778924494860278e-02 -6.6600785873753166e-01  -1.1127769705082585e-02 1.8249963859211068e-02 -7.2612924432818937e-01  -1.1134009842661528e-02 1.9721517626000093e-02 -7.8628952285298070e-01  0.0000000000000000e+00 0.0000000000000000e+00 0.0000000000000000e+00  -1.4295319249040879e-03 2.5848897130511769e-04 -4.0977416222700734e-03  -2.8782280033497571e-03 6.1843439666037941e-04 -1.5871714846749693e-02  -4.2058804869996502e-03 1.1416427431281751e-03 -3.4890359386153390e-02  -5.4122947782684295e-03 1.8149044909921651e-03 -6.0530799798571643e-02  -6.4966563584845224e-03 2.6263615281796721e-03 -9.2149878949572842e-02  -7.4602931060151695e-03 3.5624471536241397e-03 -1.2910779333440550e-01  -8.3055431093595200e-03 4.6086417025042103e-03 -1.7077389054343017e-01  -9.0356712666002249e-03 5.7503137754132223e-03 -2.1653202156940898e-01  -9.6549285842657592e-03 6.9731824545142471e-03 -2.6578592174837029e-01  -1.0168628876938075e-02 8.2635812420465103e-03 -3.1796482133858411e-01  -1.0583218897724383e-02 9.6086507951157422e-03 -3.7252935696728362e-01  -1.0906337919754748e-02 1.0996510461878545e-02 -4.2897778340103293e-01  -1.1146866418206555e-02 1.2416425541617588e-02 -4.8685245033857111e-01  -1.1314964238718150e-02 1.3858975348423721e-02 -5.4574649615457560e-01  -1.1422098779101646e-02 1.5316222686520910e-02 -6.0531070852274949e-01  -1.1481059244378788e-02 1.6781886463099277e-02 -6.6526050490706512e-01  -1.1505940394411902e-02 1.8251546779952429e-02 -7.2538300092981900e-01  -1.1512471994483124e-02 1.9722882933564303e-02 -7.8554438599730059e-01  0.0000000000000000e+00 0.0000000000000000e+00 0.0000000000000000e+00  -1.4405467998185402e-03 3.3133062975786165e-04 -3.8958909326870131e-03  -2.9371598159750431e-03 6.9519170086744140e-04 -1.5519215723260761e-02  -4.3131512783997870e-03 1.2169693547215026e-03 -3.4440161196363013e-02  -5.5631172222785196e-03 1.8851968402505701e-03 -6.0008809008998833e-02  -6.6864930991797624e-03 2.6900814315636875e-03 -9.1571100194388341e-02  -7.6849446919245367e-03 3.6190562467398749e-03 -1.2848268954651698e-01  -8.5609513797307475e-03 4.6580608856723786e-03 -1.7011094482269576e-01  -9.3178877027618942e-03 5.7926863228580780e-03 -2.1583870073030906e-01  -9.9601315929657708e-03 7.0087799987985401e-03 -2.6506899838020737e-01  -1.0493153361138742e-02 8.2927695268494514e-03 