<?xml version="1.0"?>
<VTKFile type="UnstructuredGrid"  version="0.1"  >
<UnstructuredGrid>
<Piece  NumberOfPoints="760" NumberOfCells="3024">
<Points>
<DataArray  type="Float64"  NumberOfComponents="3"  format="ascii">0 0 0  0.05555555555555555 0 0  0.1111111111111111 0 0  0.1666666666666667 0 0  0.2222222222222222 0 0  0.2777777777777778 0 0  0.3333333333333333 0 0  0.3888888888888889 0 0  0.4444444444444444 0 0  0.5 0 0  0.5555555555555556 0 0  0.6111111111111112 0 0  0.6666666666666666 0 0  0.7222222222222222 0 0  0.7777777777777778 0 0  0.8333333333333334 0 0  0.8888888888888888 0 0  0.9444444444444444 0 0  1 0 0  0 0.01428571428571429 0  0.05555555555555555 0.01428571428571429 0  0.1111111111111111 0.01428571428571429 0  0.1666666666666667 0.01428571428571429 0  0.2222222222222222 0.01428571428571429 0  0.2777777777777778 0.01428571428571429 0  0.3333333333333333 0.01428571428571429 0  0.3888888888888889 0.01428571428571429 0  0.4444444444444444 0.01428571428571429 0  0.5 0.01428571428571429 0  0.5555555555555556 0.01428571428571429 0  0.6111111111111112 0.01428571428571429 0  0.6666666666666666 0.01428571428571429 0  0.7222222222222222 0.01428571428571429 0  0.7777777777777778 0.01428571428571429 0  0.8333333333333334 0.01428571428571429 0  0.8888888888888888 0.01428571428571429 0  0.9444444444444444 0.01428571428571429 0  1 0.01428571428571429 0  0 0.02857142857142857 0  0.05555555555555555 0.02857142857142857 0  0.1111111111111111 0.02857142857142857 0  0.1666666666666667 0.02857142857142857 0  0.2222222222222222 0.02857142857142857 0  0.2777777777777778 0.02857142857142857 0  0.3333333333333333 0.02857142857142857 0  0.3888888888888889 0.02857142857142857 0  0.4444444444444444 0.02857142857142857 0  0.5 0.02857142857142857 0  0.5555555555555556 0.02857142857142857 0  0.6111111111111112 0.02857142857142857 0  0.6666666666666666 0.02857142857142857 0  0.7222222222222222 0.02857142857142857 0  0.7777777777777778 0.02857142857142857 0  0.8333333333333334 0.02857142857142857 0  0.8888888888888888 0.02857142857142857 0  0.9444444444444444 0.02857142857142857 0  1 0.02857142857142857 0  0 0.04285714285714286 0  0.05555555555555555 0.04285714285714286 0  0.1111111111111111 0.04285714285714286 0  0.1666666666666667 0.04285714285714286 0  0.2222222222222222 0.04285714285714286 0  0.2777777777777778 0.04285714285714286 0  0.3333333333333333 0.04285714285714286 0  0.3888888888888889 0.04285714285714286 0  0.4444444444444444 0.04285714285714286 0  0.5 0.04285714285714286 0  0.5555555555555556 0.04285714285714286 0  0.6111111111111112 0.04285714285714286 0  0.6666666666666666 0.04285714285714286 0  0.7222222222222222 0.04285714285714286 0  0.7777777777777778 0.04285714285714286 0  0.8333333333333334 0.04285714285714286 0  0.8888888888888888 0.04285714285714286 0  0.9444444444444444 0.04285714285714286 0  1 0.04285714285714286 0  0 0.05714285714285715 0  0.05555555555555555 0.05714285714285715 0  0.1111111111111111 0.05714285714285715 0  0.1666666666666667 0.05714285714285715 0  0.2222222222222222 0.05714285714285715 0  0.2777777777777778 0.05714285714285715 0  0.3333333333333333 0.05714285714285715 0  0.3888888888888889 0.05714285714285715 0  0.4444444444444444 0.05714285714285715 0  0.5 0.05714285714285715 0  0.5555555555555556 0.05714285714285715 0  0.6111111111111112 0.05714285714285715 0  0.6666666666666666 0.05714285714285715 0  0.7222222222222222 0.05714285714285715 0  0.7777777777777778 0.05714285714285715 0  0.8333333333333334 0.05714285714285715 0  0.8888888888888888 0.05714285714285715 0  0.9444444444444444 0.05714285714285715 0  1 0.05714285714285715 0  0 0.07142857142857142 0  0.05555555555555555 0.07142857142857142 0  0.1111111111111111 0.07142857142857142 0  0.1666666666666667 0.07142857142857142 0  0.2222222222222222 0.07142857142857142 0  0.2777777777777778 0.07142857142857142 0  0.3333333333333333 0.07142857142857142 0  0.3888888888888889 0.07142857142857142 0  0.4444444444444444 0.07142857142857142 0  0.5 0.07142857142857142 0  0.5555555555555556 0.07142857142857142 0  0.6111111111111112 0.07142857142857142 0  0.6666666666666666 0.07142857142857142 0  0.7222222222222222 0.07142857142857142 0  0.7777777777777778 0.07142857142857142 0  0.8333333333333334 0.07142857142857142 0  0.8888888888888888 0.07142857142857142 0  0.9444444444444444 0.07142857142857142 0  1 0.07142857142857142 0  0 0.08571428571428573 0  0.05555555555555555 0.08571428571428573 0  0.1111111111111111 0.08571428571428573 0  0.1666666666666667 0.08571428571428573 0  0.2222222222222222 0.08571428571428573 0  0.2777777777777778 0.08571428571428573 0  0.3333333333333333 0.08571428571428573 0  0.3888888888888889 0.08571428571428573 0  0.4444444444444444 0.08571428571428573 0  0.5 0.08571428571428573 0  0.5555555555555556 0.08571428571428573 0  0.6111111111111112 0.08571428571428573 0  0.6666666666666666 0.08571428571428573 0  0.7222222222222222 0.08571428571428573 0  0.7777777777777778 0.08571428571428573 0  0.8333333333333334 0.08571428571428573 0  0.8888888888888888 0.08571428571428573 0  0.9444444444444444 0.08571428571428573 0  1 0.08571428571428573 0  0 0.1 0  0.05555555555555555 0.1 0  0.1111111111111111 0.1 0  0.1666666666666667 0.1 0  0.2222222222222222 0.1 0  0.2777777777777778 0.1 0  0.3333333333333333 0.1 0  0.3888888888888889 0.1 0  0.4444444444444444 0.1 0  0.5 0.1 0  0.5555555555555556 0.1 0  0.6111111111111112 0.1 0  0.6666666666666666 0.1 0  0.7222222222222222 0.1 0  0.7777777777777778 0.1 0  0.8333333333333334 0.1 0  0.8888888888888888 0.1 0  0.9444444444444444 0.1 0  1 0.1 0  0 0 0.01  0.05555555555555555 0 0.01  0.1111111111111111 0 0.01  0.1666666666666667 0 0.01  0.2222222222222222 0 0.01  0.2777777777777778 0 0.01  0.3333333333333333 0 0.01  0.3888888888888889 0 0.01  0.4444444444444444 0 0.01  0.5 0 0.01  0.5555555555555556 0 0.01  0.6111111111111112 0 0.01  0.6666666666666666 0 0.01  0.7222222222222222 0 0.01  0.7777777777777778 0 0.01  0.8333333333333334 0 0.01  0.8888888888888888 0 0.01  0.9444444444444444 0 0.01  1 0 0.01  0 0.01428571428571429 0.01  0.05555555555555555 0.01428571428571429 0.01  0.1111111111111111 0.01428571428571429 0.01  0.1666666666666667 0.01428571428571429 0.01  0.2222222222222222 0.01428571428571429 0.01  0.2777777777777778 0.01428571428571429 0.01  0.3333333333333333 0.01428571428571429 0.01  0.3888888888888889 0.01428571428571429 0.01  0.4444444444444444 0.01428571428571429 0.01  0.5 0.01428571428571429 0.01  0.5555555555555556 0.01428571428571429 0.01  0.6111111111111112 0.01428571428571429 0.01  0.6666666666666666 0.01428571428571429 0.01  0.7222222222222222 0.01428571428571429 0.01  0.7777777777777778 0.01428571428571429 0.01  0.8333333333333334 0.01428571428571429 0.01  0.8888888888888888 0.01428571428571429 0.01  0.9444444444444444 0.01428571428571429 0.01  1 0.01428571428571429 0.01  0 0.02857142857142857 0.01  0.05555555555555555 0.02857142857142857 0.01  0.1111111111111111 0.02857142857142857 0.01  0.1666666666666667 0.02857142857142857 0.01  0.2222222222222222 0.02857142857142857 0.01  0.2777777777777778 0.02857142857142857 0.01  0.3333333333333333 0.02857142857142857 0.01  0.3888888888888889 0.02857142857142857 0.01  0.4444444444444444 0.02857142857142857 0.01  0.5 0.02857142857142857 0.01  0.5555555555555556 0.02857142857142857 0.01  0.6111111111111112 0.02857142857142857 0.01  0.6666666666666666 0.02857142857142857 0.01  0.7222222222222222 0.02857142857142857 0.01  0.7777777777777778 0.02857142857142857 0.01  0.8333333333333334 0.02857142857142857 0.01  0.8888888888888888 0.02857142857142857 0.01  0.9444444444444444 0.02857142857142857 0.01  1 0.02857142857142857 0.01  0 0.04285714285714286 0.01  0.05555555555555555 0.04285714285714286 0.01  0.1111111111111111 0.04285714285714286 0.01  0.1666666666666667 0.04285714285714286 0.01  0.2222222222222222 0.04285714285714286 0.01  0.2777777777777778 0.04285714285714286 0.01  0.3333333333333333 0.04285714285714286 0.01  0.3888888888888889 0.04285714285714286 0.01  0.4444444444444444 0.04285714285714286 0.01  0.5 0.04285714285714286 0.01  0.5555555555555556 0.04285714285714286 0.01  0.6111111111111112 0.04285714285714286 0.01  0.6666666666666666 0.04285714285714286 0.01  0.7222222222222222 0.04285714285714286 0.01  0.7777777777777778 0.04285714285714286 0.01  0.8333333333333334 0.04285714285714286 0.01  0.8888888888888888 0.04285714285714286 0.01  0.9444444444444444 0.04285714285714286 0.01  1 0.04285714285714286 0.01  0 0.05714285714285715 0.01  0.05555555555555555 0.05714285714285715 0.01  0.1111111111111111 0.05714285714285715 0.01  0.1666666666666667 0.05714285714285715 0.01  0.2222222222222222 0.05714285714285715 0.01  0.2777777777777778 0.05714285714285715 0.01  0.3333333333333333 0.05714285714285715 0.01  0.3888888888888889 0.05714285714285715 0.01  0.4444444444444444 0.05714285714285715 0.01  0.5 0.05714285714285715 0.01  0.5555555555555556 0.05714285714285715 0.01  0.6111111111111112 0.05714285714285715 0.01  0.6666666666666666 0.05714285714285715 0.01  0.7222222222222222 0.05714285714285715 0.01  0.7777777777777778 0.05714285714285715 0.01  0.8333333333333334 0.05714285714285715 0.01  0.8888888888888888 0.05714285714285715 0.01  0.9444444444444444 0.05714285714285715 0.01  1 0.05714285714285715 0.01  0 0.07142857142857142 0.01  0.05555555555555555 0.07142857142857142 0.01  0.1111111111111111 0.07142857142857142 0.01  0.1666666666666667 0.07142857142857142 0.01  0.2222222222222222 0.07142857142857142 0.01  0.2777777777777778 0.07142857142857142 0.01  0.3333333333333333 0.07142857142857142 0.01  0.3888888888888889 0.07142857142857142 0.01  0.4444444444444444 0.07142857142857142 0.01  0.5 0.07142857142857142 0.01  0.5555555555555556 0.07142857142857142 0.01  0.6111111111111112 0.07142857142857142 0.01  0.6666666666666666 0.07142857142857142 0.01  0.7222222222222222 0.07142857142857142 0.01  0.7777777777777778 0.07142857142857142 0.01  0.8333333333333334 0.07142857142857142 0.01  0.8888888888888888 0.07142857142857142 0.01  
[...]
<PointData  Vectors="f_33"> 
<DataArray  type="Float64"  Name="f_33"  NumberOfComponents="3" format="ascii">0.0000000000000000e+00 0.0000000000000000e+00 0.0000000000000000e+00  -3.3706479435698746e-03 -1.6823122917230973e-04 -4.9351765631536725e-03  -6.2819623752362859e-03 3.0754898772682545e-04 -1.8918021510991329e-02  -8.9336881725888204e-03 1.0735437432229386e-03 -4.1297594381308506e-02  -1.1330920846389722e-02 2.0650265573345771e-03 -7.1263403177263776e-02  -1.3478106999640528e-02 3.2451204593891610e-03 -1.0804837060985070e-01  -1.5378992688718182e-02 4.5873004836418010e-03 -1.5090275190238417e-01  -1.7039026282262743e-02 6.0688526069253316e-03 -1.9909334837514447e-01  -1.8465708353955952e-02 7.6688691211022472e-03 -2.5190734522048458e-01  -1.9668673286093525e-02 9.3676618309287002e-03 -3.0865771582576801e-01  -2.0659769666609186e-02 1.1146676129186356e-02 -3.6868939154858282e-01  -2.1453140186041154e-02 1.2988588914583741e-02 -4.3138589455576654e-01  -2.2065287452662258e-02 1.4877477094555872e-02 -4.9617627306598594e-01  -2.2515122191465783e-02 1.6799014753261881e-02 -5.6254223766177713e-01  -2.2823995425625233e-02 1.8740683436736578e-02 -6.3002542889523638e-01  -2.3015719341836102e-02 2.0691991029047594e-02 -6.9823476701757359e-01  -2.3116597058823976e-02 2.2644697975682734e-02 -7.6685385384632232e-01  -2.3155520027924183e-02 2.4593037132757210e-02 -8.3564848950487958e-01  -2.3163835865110505e-02 2.6534106889488880e-02 -9.0447518431693774e-01  0.0000000000000000e+00 0.0000000000000000e+00 0.0000000000000000e+00  -3.2339638359193861e-03 -2.8507721754347509e-06 -5.0811278729244970e-03  -6.2312033669315679e-03 4.5371176542755048e-04 -1.9021508008517450e-02  -8.9576738483344801e-03 1.2055543314582352e-03 -4.1298672436369595e-02  -1.1424234000705445e-02 2.1834104581783692e-03 -7.1151539842590816e-02  -1.3634924442544761e-02 3.3501377426973927e-03 -1.0782655808396678e-01  -1.5593508659089138e-02 4.6792458667123098e-03 -1.5057849868240578e-01  -1.7305486202010605e-02 6.1481220103504191e-03 -1.9867576663930722e-01  -1.8778411534926369e-02 7.7359718774212601e-03 -2.5140611179007322e-01  -2.0021991634955112e-02 9.4232258143867251e-03 -3.0808264906274813e-01  -2.1048181547120133e-02 1.1191452356415202e-02 -3.6805024653787199e-01  -2.1871272889098452e-02 1.3023455395797452e-02 -4.3069223604369061e-01  -2.2507964620628367e-02 1.4903441661231099e-02 -4.9543737474182870e-01  -2.2977414443950513e-02 1.6817216854243266e-02 -5.6176698894826838e-01  -2.3301273185268014e-02 1.8752394851034949e-02 -6.2922224213290356e-01  -2.3503705900063215e-02 2.0698615307586762e-02 -6.9741148074767945e-01  -2.3611413546988372e-02 2.2647768556497454e-02 -7.6601762379520943e-01  -2.3653742957037087e-02 2.4594199381820642e-02 -8.3480563070537517e-01  -2.3663173484328948e-02 2.6534705232409563e-02 -9.0363078710560518e-01  0.0000000000000000e+00 0.0000000000000000e+00 0.0000000000000000e+00  -3.2402414873874191e-03 1.2387306095179796e-04 -5.1398959031937136e-03  -6.2837950755322532e-03 5.9765842406851873e-04 -1.9024709334488073e-02  -9.0699888671240576e-03 1.3447159223411323e-03 -4.1203476652944812e-02  -1.1594707013874965e-02 2.3114715903217705e-03 -7.0951815034706392e-02  -1.3859091789427130e-02 3.4650833269950633e-03 -1.0752619792346584e-01  -1.5866222227440083e-02 4.7806094624108742e-03 -1.5018508855176593e-01  -1.7621457680971547e-02 6.2360386609949603e-03 -1.9819823145171753e-01  -1.9132387882528551e-02 7.8108649640729168e-03 -2.5085380355059234e-01  -2.0408838488210217e-02 9.4857044786133826e-03 -3.0746495757973535e-01  -2.1462943347620469e-02 1.1242278362019759e-02 -3.6737640313261899e-01  -2.2309226567536828e-02 1.3063533443653090e-02 -4.2997118770552156e-01  -2.2964671972122437e-02 1.4933817424451851e-02 -4.9467768269596157e-01  -2.3448774909482339e-02 1.6839077135129971e-02 -5.6097673458610520e-01  -2.3783577385394994e-02 1.8767067553304383e-02 -6.2840893403167275e-01  -2.3993688537751922e-02 2.0707567611175325e-02 -6.9658195983507698e-01  -2.4106297468944687e-02 2.2652603318939587e-02 -7.6517796233131530e-01  -2.4151260877961843e-02 2.4596653467606495e-02 -8.3396100791191663e-01  -2.4161661238008069e-02 2.6536439549144818e-02 -9.0278521882768148e-01  0.0000000000000000e+00 0.0000000000000000e+00 0.0000000000000000e+00  -3.2695422556155095e-03 2.3425134931320045e-04 -5.1252516582310165e-03  -6.3597424440152506e-03 7.3789742882259261e-04 -1.8924050193050247e-02  -9.2040264329982663e-03 1.4874647676984592e-03 -4.1003601238292754e-02  -1.1785039658446369e-02 2.4455521408645012e-03 -7.0654226199195230e-02  -1.4101024591897431e-02 3.5865534153489888e-03 -1.0713735775642101e-01  -1.6154542766534989e-02 4.8882642030615491e-03 -1.4971330699825650e-01  -1.7950902788324154e-02 6.3297428832789684e-03 -1.9765247212604134e-01  -1.9497773679276673e-02 7.8909508275006156e-03 -2.5024315688027721e-01  -2.0805128600244142e-02 9.5527600905276674e-03 -3.0679838108204183e-01  -2.1885304253077869e-02 1.1297074437358869e-02 -3.6666256928328583e-01  -2.2753079941623459e-02 1.3106998708869590e-02 -4.2921837245371547e-01  -2.3425746805089853e-02 1.4967031186942986e-02 -4.9389366806021667e-01  -2.3923160319718369e-02 1.6863267508639881e-02 -5.6016871533744972e-01  -2.4267776287394779e-02 1.8783610759933119e-02 -6.2758342497653086e-01  -2.4484671523148985e-02 2.0717985562230638e-02 -6.9574470270198119e-01  -2.4601549408495911e-02 2.2658558775432443e-02 -7.6433383126233978e-01  -2.4648786391702218e-02 2.4599955119069657e-02 -8.3311390047538192e-01  -2.4659993597080765e-02 2.6539043255867700e-02 -9.0193780953687663e-01  0.0000000000000000e+00 0.0000000000000000e+00 0.0000000000000000e+00  -3.2926010745802097e-03 3.4324356575163398e-04 -5.0429718887572009e-03  -6.4373282968071821e-03 8.7869514584890053e-04 -1.8724437753058910e-02  -9.3428989934260295e-03 1.6334852239622373e-03 -4.0699496717626217e-02  -1.1981091985686983e-02 2.5841271010412963e-03 -7.0257536468887757e-02  -1.4348665015703052e-02 3.7127481446874188e-03 -1.0665822143285056e-01  -1.6448234622137629e-02 5.0004279205783497e-03 -1.4916122255719724e-01  -1.8285264104441392e-02 6.4275627299919058e-03 -1.9703663023460641e-01  -1.9867576379438846e-02 7.9746966578441384e-03 -2.4957245822528679e-01  -2.1205322041406117e-02 9.6230064488436861e-03 -3.0608137563016974e-01  -2.2311054496734928e-02 1.1354600233262908e-02 -3.6590737618477209e-01  -2.3199816111654104e-02 1.3152752134874157e-02 -4.2843259378014487e-01  -2.3889211041535702e-02 1.5002118347072014e-02 -4.9308429954548000e-01  -2.4399459880710149e-02 1.6888949266024227e-02 -5.5934205530137571e-01  -2.4753437106933993e-02 1.8801301749379454e-02 -6.2674498225774999e-01  -2.4976693218108706e-02 2.0729252004669369e-02 -6.9489910484818906e-01  -2.5097458022460991e-02 2.2665112863077066e-02 -7.6348473486334822e-01  -2.5146646761754168e-02 2.4603664104841955e-02 -8.3226389204003048e-01  -2.5158439443880003e-02 2.6542101181964876e-02 -9.0108822725325766e-01  0.0000000000000000e+00 0.0000000000000000e+00 0.0000000000000000e+00  -3.2989254679612954e-03 4.6359922573908935e-04 -4.8899890933237419e-03  -6.5062480786233943e-03 1.0269526531453954e-03 -1.8425230037139671e-02  -9.4775912466642642e-03 1.7852889982633779e-03 -4.0290831526952134e-02  -1.2174869997430525e-02 2.7278034935658466e-03 -6.9761083549796002e-02  -1.4594974103726229e-02 3.8435764554011240e-03 -1.0608793674599645e-01  -1.6741192432925867e-02 5.1167568019024751e-03 -1.4852794726354934e-01  -1.8619338751080003e-02 6.5290619882227259e-03 -1.9634986107578373e-01  -2.0237454693523296e-02 8.0616326459246011e-03 -2.4884094012318114e-01  -2.1605889732971426e-02 9.6959621483527041e-03 -3.0531326378454615e-01  -2.2737419125906978e-02 1.1414371235585828e-02 -3.6511023994211489e-01  -2.3647347048808411e-02 1.3200309597575639e-02 -4.2761336067896660e-01  -2.4353586972712522e-02 1.5038596841173280e-02 -4.9224917621620029e-01  -2.4876720046280904e-02 1.6915643426235669e-02 -5.5849643935089655e-01  -2.5240034623699104e-02 1.8819665517328988e-02 -6.2589337090804908e-01  -2.5469550634558243e-02 2.0740897477782544e-02 -6.9404500356254961e-01  -2.5594028335870385e-02 2.2671805326185943e-02 -7.6263056992827882e-01  -2.5644950886882737e-02 2.4607332697178637e-02 -8.3141092160282637e-01  -2.5657130381215053e-02 2.6545136600855924e-02 -9.0023645628756610e-01  0.0000000000000000e+00 0.0000000000000000e+00 0.0000000000000000e+00  -3.2735824230172603e-03 6.0640812171614466e-04 -4.6516375789776663e-03  -6.5491011890206367e-03 1.1892118622111691e-03 -1.8018345490182257e-02  -9.5905062911905460e-03 1.9460353201986281e-03 -3.9773557968792617e-02  -1.2349627425004821e-02 2.8779638461597376e-03 -6.9162217787157754e-02  -1.4824639338286765e-02 3.9796309335483043e-03 -1.0542446805820750e-01  -1.7019746731763315e-02 5.2374921750366326e-03 -1.4781182786645311e-01  -1.8941149103066660e-02 6.6343080198871182e-03 -1.9559081636159842e-01  -2.0597102771347922e-02 8.1517223685616674e-03 -2.4804752594417426e-01  -2.1998142056996742e-02 9.7715155959654347e-03 -3.0449321970584886e-01  -2.3157245620116708e-02 1.1476213669795208e-02 -3.6427056705854610e-01  -2.4089958718924408e-02 1.3249442578433437e-02 -4.2676029258784021e-01  -2.4814482285418864e-02 1.5076189154446992e-02 -4.9138810886927153e-01  -2.5351735639681478e-02 1.6943028990834337e-02 -5.5763184541600030e-01  -2.5725398390580450e-02 1.8838343383546688e-02 -6.2502870878583816e-01  -2.5961936849634524e-02 2.0752532173560150e-02 -6.9318262544880482e-01  -2.6090624194933725e-02 2.2678224737064875e-02 -7.6177163301881923e-01  -2.6143537321927375e-02 2.4610529658325615e-02 -8.3055530908231689e-01  -2.6156113449643525e-02 2.6547665615289685e-02 -8.9938280098117762e-01  0.0000000000000000e+00 0.0000000000000000e+00 0.0000000000000000e+00  -3.1513199484618231e-03 7.6292826329020253e-04 -4.3208612702755290e-03  -6.4925658185186657e-03 1.3570455947296532e-03 -1.7504189782493990e-02  -9.6096729704866594e-03 2.1075040630018581e-03 -3.9152385545852209e-02  -1.2437892872252476e-02 3.0267275002827145e-03 -6.8466946915616222e-02  -1.4976231443616263e-02 4.1136151922862348e-03 -1.0467402994016023e-01  -1.7229053114222268e-02 5.3560719804806051e-03 -1.4701885548416441e-01  -1.9202539090812765e-02 6.7375311202789697e-03 -1.9476509694462654e-01  -2.0904953029594640e-02 8.2399924777719156e-03 -2.4719736072415890e-01  -2.2346884745620684e-02 9.8454653497067543e-03 -3.0362590700683001e-01  -2.3541414417331489e-02 1.1536657036940626e-02 -3.6339253105039504e-01  -2.4504235195747973e-02 1.3297358928823975e-02 -4.2587707273417447e-01  -2.5253744396284729e-02 1.5112719098102577e-02 -4.9050429575304433e-01  -2.5811108439805219e-02 1.6969474143797587e-02 -5.5675099659989680e-01  -2.6200306599690054e-02 1.8856167220164328e-02 -6.2415325788322740e-01  -2.6448159453408490e-02 2.0763361590781203e-02 -6.9231378938729637e-01  -2.6584353514841810e-02 2.2683856375595536e-02 -7.6090931921475136e-01  -2.6641524704004643e-02 2.4612903405686518e-02 -8.2969798224473779e-01  -2.6655462908085580e-02 2.6549368733788940e-02 -8.9852768141100292e-01  0.0000000000000000e+00 0.0000000000000000e+00 0.0000000000000000e+00  -1.5230130335543023e-03 -3.7974985178360812e-05 -4.7928358070657272e-03  -2.8834621742543243e-03 4.0536146185636297e-04 -1.8786632815901486e-02  -4.1156246599949641e-03 1.0952335558518970e-03 -4.1177075872868341e-02  -5.2303818634942788e-03 2.0046391672583356e-03 -7.1154164256171396e-02  -6.2300906547465987e-03 3.1053752325866909e-03 -1.0795048667796421e-01  -7.1161570989922984e-03 4.3737139981773077e-03 -1.5081612928196286e-01  -7.8908866412528613e-03 5.7879481904264179e-03 -1.9901775938658689e-01  -8.5576223543472104e-03 7.3275347663275432e-03 -2.5184245039536352e-01  -9.1207291846327077e-03 8.9728854632659810e-03 -3.0860307139280768e-01  -9.5856057656823271e-03 1.0705414166949007e-02 -3.6864444953218950e-01  -9.9587120018209997e-03 1.2507682037007349e-02 -4.3135000055545519e-01  -1.0247596350402278e-02 1.4363581667878413e-02 -4.9614866382136202e-01  -1.0460917066224814e-02 1.6258538370631386e-02 -5.6252203905921772e-01  -1.0608456686993324e-02 1.8179720169344157e-02 -6.3001165448091023e-01  -1.0701131852790086e-02 2.0116253510962676e-02 -6.9822631678872782e-01  -1.0751007966492391e-02 2.2059439864758442e-02 -7.6684951148848823e-01  -1.0771339855691751e-02 2.4002939364349097e-02 -8.3564691008905267e-01  -1.0776310204444799e-02 2.5943068285790290e-02 -9.0447448925687557e-01  0.0000000000000000e+00 0.0000000000000000e+00 0.0000000000000000e+00  -1.5109760972073576e-03 6.3763245195781680e-05 -4.9237763853915107e-03  -2.9589381288007434e-03 4.8738713055339447e-04 -1.8888390072112998e-02  -4.2547697191493645e-03 1.1695974718906594e-03 -4.1177718040535459e-02  -5.4275737351823826e-03 2.0715485096921564e-03 -7.1042259113500691e-02  -6.4794383883030734e-03 3.1649012249215214e-03 -1.0772872320164195e-01  -7.4119987859273826e-03 4.4259721757310177e-03 -1.5049192007097828e-01  -8.2277468599847390e-03 5.8331313518507960e-03 -1.9860018592895420e-01  -8.9301897135250202e-03 7.3659078270434022e-03 -2.5134118258859145e-01  -9.5238700082846666e-03 9.0047825089425403e-03 -3.0802793004657708e-01  -1.0014398939038053e-02 1.0731238682475015e-02 -3.6800519620459277e-01  -1.0408493738639599e-02 1.2527908207807897e-02 -4.3065620846413655e-01  -1.0714009772599561e-02 1.4378755684820610e-02 -4.9540961634477776e-01  -1.0939964456310233e-02 1.6269279390088629e-02 -5.6174663622427612e-01  -1.1096553405725832e-02 1.8186720840058457e-02 -6.2920832005873528e-01  -1.1195160340285049e-02 2.0120280274527228e-02 -6.9740290177710740e-01  -1.1248366862483797e-02 2.2061334297233885e-02 -7.6601318627896697e-01  -1.1270008094224107e-02 2.4003618580545425e-02 -8.3480400350351114e-01  -1.1275372648401727e-02 2.5943312599902162e-02 -9.0363024457369734e-01  0.0000000000000000e+00 0.0000000000000000e+00 0.0000000000000000e+00  -1.5415436064753331e-03 1.3215264101067983e-04 -4.9766419669491730e-03  -3.0457701251806702e-03 5.6154205702050285e-04 -1.8884737510070335e-02  -4.4021125594489929e-03 1.2407310831653283e-03 -4.1078814996799676e-02  -5.6308252374661803e-03 2.1367637497779171e-03 -7.0840054169723429e-02  -6.7333753136381439e-03 3.2233592293240371e-03 -1.0742646287470574e-01  -7.7112491543214505e-03 4.4774919729151262e-03 -1.5009695682660662e-01  -8.5669922151239055e-03 5.8777996041931907e-03 -1.9812135877696099e-01  -9.3042351634366090e-03 7.4039448689611834e-03 -2.5078780741833817e-01  -9.9276910737356432e-03 9.0364985960682855e-03 -3.0740937697079473e-01  -1.0443188783474505e-02 1.0757020019376777e-02 -3.6733068148099240e-01  -1.0857712597811067e-02 1.2548213028669347e-02 -4.2993466434246846e-01  -1.1179436199825768e-02 1.4394113609709195e-02 -4.9464958801417819e-01  -1.1417748033994857e-02 1.6280291642198456e-02 -5.6095618710747541e-01  -1.1583268541222340e-02 1.8194060319851175e-02 -6.2839493854244088e-01  -1.1687859711460667e-02 2.0124690934833683e-02 -6.9657340625451680e-01  -1.1744628326089943e-02 2.2063631675091233e-02 -7.6517362465643812e-01  -1.1767972956349394e-02 2.4004700416825977e-02 -8.3395953028382186e-01  -1.1773939591812204e-02 2.5944049748051395e-02 -9.0278489144556184e-01  0.0000000000000000e+00 0.0000000000000000e+00 0.0000000000000000e+00  -1.5843160259064522e-03 1.9028800592522384e-04 -4.9573601637950887e-03  -3.1429618574295190e-03 6.3187418577015549e-04 -1.8778763541211250e-02  -4.5582194352105808e-03 1.3117601915845773e-03 -4.0875033928949152e-02  -5.8418567564598534e-03 2.2034082452524056e-03 -7.0539554042364380e-02  -6.9941379810238612e-03 3.2836764064866028e-03 -1.0703528874952899e-01  -8.0163798444369081e-03 4.5309057532703922e-03 -1.4962322495005240e-01  -8.9112025349431523e-03 5.9242572309677359e-03 -1.9757395053659851e-01  -9.6823734398585864e-03 7.4436188563816938e-03 -2.5017577593785323e-01  -1.0334786790151661e-02 9.0696850959384352e-03 -3.0674165826717559e-01  -1.0874499176400062e-02 1.0784104558105807e-02 -3.6661593091782357e-01  -1.1308771985359258e-02 1.2569659242065507e-02 -4.2918114079416242e-01  -1.1646107237108639e-02 1.4410459911900276e-02 -4.9386505479068410e-01  -1.1896274416146888e-02 1.6292150466442178e-02 -5.6014781798122082e-01  -1.2070328776589694e-02 1.8202117757589349e-02 -6.2756922475432697e-01  -1.2180621154396590e-02 2.0129705370338920e-02 -6.9573606329561899e-01  -1.2240795642040054e-02 2.2066432567859038e-02 -7.6432949862512922e-01  -1.2265809898896791e-02 2.4006204581424665e-02 -8.3311249368293627e-01  -1.2272341966647763e-02 2.5945280914192664e-02 -9.0193761887475798e-01  0.0000000000000000e+00 0.0000000000000000e+00 0.0000000000000000e+00  -1.6249645703972327e-03 2.4876570669053586e-04 -4.8728734567612423e-03  -3.2418624009752290e-03 7.0326013991441028e-04 -1.8575532390048367e-02  -4.7169585669157845e-03 1.3852761671269500e-03 -4.0567481197259447e-02  -6.0557675082680961e-03 2.2731186992006854e-03 -7.0139995133334909e-02  -7.2576652503041827e-03 3.3471124105514524e-03 -1.0655374307758778e-01  -8.3240495893577380e-03 4.5872475324756851e-03 -1.4906908133534758e-01  -9.2576907142724388e-03 5.9733593100523893e-03 -1.9695634347444996e-01  -1.0062518629682028e-02 7.4856244003792460e-03 -2.4950357710971552e-01  -1.0743619689216189e-02 9.1048874644203259e-03 -3.0602339877401241e-01  -1.1307284074386786e-02 1.0812898623301776e-02 -3.6585971353595942e-01  -1.1761054110297839e-02 1.2592524658737780e-02 -4.2839455057773629e-01  -1.2113763264138305e-02 1.4427955765870406e-02 -4.9305506855359982e-01  -1.2375564903922810e-02 1.6304913810357854e-02 -5.5932071271794181e-01  -1.2557951892374268e-02 1.8210863054421347e-02 -6.2673048537855858e-01  -1.2673767610502864e-02 2.0135222923031541e-02 -6.9489029071421970e-01  -1.2737202154857635e-02 2.2069585491825448e-02 -7.6348032071310368e-01  -1.2763781714243428e-02 2.4007947119230776e-02 -8.3226247249589391e-01  -1.2770778143530706e-02 2.5946792286284322e-02 -9.0108808049712086e-01  0.0000000000000000e+00 0.0000000000000000e+00 0.0000000000000000e+00  -1.6578180089209722e-03 3.1564212692346635e-04 -4.7212895818503128e-03  -3.3366476791170862e-03 7.8044349146292788e-04 -1.8275016100514789e-02  -4.8734854496038224e-03 1.4636886687338269e-03 -4.0156726213209183e-02  -6.2682603218990303e-03 2.3472444920542472e-03 -6.9641507501478253e-02  -7.5201846704517593e-03 3.4145665898240932e-03 -1.0598162353308602e-01  -8.6310090483847635e-03 4.6471953618646327e-03 -1.4843417936842887e-01  -9.6037179936261704e-03 6.0256421000852737e-03 -1.9626814613917370e-01  -1.0442419563285696e-02 7.5303857427488257e-03 -2.4877081970202428e-01  -1.1152396108957094e-02 9.1424309166067749e-03 -3.0525422745276598e-01  -1.1740171257084207e-02 1.0843635939599347e-02 -3.6506168805940131e-01  -1.2213566419070451e-02 1.2616957634609849e-02 -4.2757458760632089e-01  -1.2581743958891735e-02 1.4446670358952501e-02 -4.9221936217353834e-01  -1.2855238327095515e-02 1.6318578547972414e-02 -5.5847464615479880e-01  -1.3045977135819044e-02 1.8220228602998604e-02 -6.2587853958941442e-01  -1.3167294024164068e-02 2.0141120974487812e-02 -6.9403595290372389e-01  -1.3233929664315851e-02 2.2072924642891598e-02 -7.6262599658897279e-01  -1.3262001219558998e-02 2.4009728068720818e-02 -8.3140940346401759e-01  -1.3269360877793228e-02 2.5948330728899054e-02 -9.0023625245771399e-01  0.0000000000000000e+00 0.0000000000000000e+00 0.0000000000000000e+00  -1.6786470513177150e-03 4.0070113472689527e-04 -4.4895258105620223e-03  -3.4210058310186354e-03 8.6983614152668308e-04 -1.7870201741428757e-02  -5.0210413326178538e-03 1.5512358604737085e-03 -3.9639859032840535e-02  -6.4727217920564984e-03 2.4288083007658777e-03 -6.9042493254074216e-02  -7.7755791564917860e-03 3.4883873476523161e-03 -1.0531779571622173e-01  -8.9317722593186457e-03 4.7126699120965537e-03 -1.4771761849544707e-01  -9.9444688885527415e-03 6.0827006133872923e-03 -1.9550862715835632e-01  -1.0817930783621761e-02 7.5792175505300027e-03 -2.4797692000781907e-01  -1.1557621161626381e-02 9.1833750208137020e-03 -3.0443369839846707e-01  -1.2170285582868401e-02 1.0877140217758284e-02 