<?xml version="1.0"?>
<VTKFile type="UnstructuredGrid"  version="0.1"  >
<UnstructuredGrid>
<Piece  NumberOfPoints="760" NumberOfCells="3024">
<Points>
<DataArray  type="Float64"  NumberOfComponents="3"  format="ascii">0 0 0  0.05555555555555555 0 0  0.1111111111111111 0 0  0.1666666666666667 0 0  0.2222222222222222 0 0  0.2777777777777778 0 0  0.3333333333333333 0 0  0.3888888888888889 0 0  0.4444444444444444 0 0  0.5 0 0  0.5555555555555556 0 0  0.6111111111111112 0 0  0.6666666666666666 0 0  0.7222222222222222 0 0  0.7777777777777778 0 0  0.8333333333333334 0 0  0.8888888888888888 0 0  0.9444444444444444 0 0  1 0 0  0 0.01428571428571429 0  0.05555555555555555 0.01428571428571429 0  0.1111111111111111 0.01428571428571429 0  0.1666666666666667 0.01428571428571429 0  0.2222222222222222 0.01428571428571429 0  0.2777777777777778 0.01428571428571429 0  0.3333333333333333 0.01428571428571429 0  0.3888888888888889 0.01428571428571429 0  0.4444444444444444 0.01428571428571429 0  0.5 0.01428571428571429 0  0.5555555555555556 0.01428571428571429 0  0.6111111111111112 0.01428571428571429 0  0.6666666666666666 0.01428571428571429 0  0.7222222222222222 0.01428571428571429 0  0.7777777777777778 0.01428571428571429 0  0.8333333333333334 0.01428571428571429 0  0.8888888888888888 0.01428571428571429 0  0.9444444444444444 0.01428571428571429 0  1 0.01428571428571429 0  0 0.02857142857142857 0  0.05555555555555555 0.02857142857142857 0  0.1111111111111111 0.02857142857142857 0  0.1666666666666667 0.02857142857142857 0  0.2222222222222222 0.02857142857142857 0  0.2777777777777778 0.02857142857142857 0  0.3333333333333333 0.02857142857142857 0  0.3888888888888889 0.02857142857142857 0  0.4444444444444444 0.02857142857142857 0  0.5 0.02857142857142857 0  0.5555555555555556 0.02857142857142857 0  0.6111111111111112 0.02857142857142857 0  0.6666666666666666 0.02857142857142857 0  0.7222222222222222 0.02857142857142857 0  0.7777777777777778 0.02857142857142857 0  0.8333333333333334 0.02857142857142857 0  0.8888888888888888 0.02857142857142857 0  0.9444444444444444 0.02857142857142857 0  1 0.02857142857142857 0  0 0.04285714285714286 0  0.05555555555555555 0.04285714285714286 0  0.1111111111111111 0.04285714285714286 0  0.1666666666666667 0.04285714285714286 0  0.2222222222222222 0.04285714285714286 0  0.2777777777777778 0.04285714285714286 0  0.3333333333333333 0.04285714285714286 0  0.3888888888888889 0.04285714285714286 0  0.4444444444444444 0.04285714285714286 0  0.5 0.04285714285714286 0  0.5555555555555556 0.04285714285714286 0  0.6111111111111112 0.04285714285714286 0  0.6666666666666666 0.04285714285714286 0  0.7222222222222222 0.04285714285714286 0  0.7777777777777778 0.04285714285714286 0  0.8333333333333334 0.04285714285714286 0  0.8888888888888888 0.04285714285714286 0  0.9444444444444444 0.04285714285714286 0  1 0.04285714285714286 0  0 0.05714285714285715 0  0.05555555555555555 0.05714285714285715 0  0.1111111111111111 0.05714285714285715 0  0.1666666666666667 0.05714285714285715 0  0.2222222222222222 0.05714285714285715 0  0.2777777777777778 0.05714285714285715 0  0.3333333333333333 0.05714285714285715 0  0.3888888888888889 0.05714285714285715 0  0.4444444444444444 0.05714285714285715 0  0.5 0.05714285714285715 0  0.5555555555555556 0.05714285714285715 0  0.6111111111111112 0.05714285714285715 0  0.6666666666666666 0.05714285714285715 0  0.7222222222222222 0.05714285714285715 0  0.7777777777777778 0.05714285714285715 0  0.8333333333333334 0.05714285714285715 0  0.8888888888888888 0.05714285714285715 0  0.9444444444444444 0.05714285714285715 0  1 0.05714285714285715 0  0 0.07142857142857142 0  0.05555555555555555 0.07142857142857142 0  0.1111111111111111 0.07142857142857142 0  0.1666666666666667 0.07142857142857142 0  0.2222222222222222 0.07142857142857142 0  0.2777777777777778 0.07142857142857142 0  0.3333333333333333 0.07142857142857142 0  0.3888888888888889 0.07142857142857142 0  0.4444444444444444 0.07142857142857142 0  0.5 0.07142857142857142 0  0.5555555555555556 0.07142857142857142 0  0.6111111111111112 0.07142857142857142 0  0.6666666666666666 0.07142857142857142 0  0.7222222222222222 0.07142857142857142 0  0.7777777777777778 0.07142857142857142 0  0.8333333333333334 0.07142857142857142 0  0.8888888888888888 0.07142857142857142 0  0.9444444444444444 0.07142857142857142 0  1 0.07142857142857142 0  0 0.08571428571428573 0  0.05555555555555555 0.08571428571428573 0  0.1111111111111111 0.08571428571428573 0  0.1666666666666667 0.08571428571428573 0  0.2222222222222222 0.08571428571428573 0  0.2777777777777778 0.08571428571428573 0  0.3333333333333333 0.08571428571428573 0  0.3888888888888889 0.08571428571428573 0  0.4444444444444444 0.08571428571428573 0  0.5 0.08571428571428573 0  0.5555555555555556 0.08571428571428573 0  0.6111111111111112 0.08571428571428573 0  0.6666666666666666 0.08571428571428573 0  0.7222222222222222 0.08571428571428573 0  0.7777777777777778 0.08571428571428573 0  0.8333333333333334 0.08571428571428573 0  0.8888888888888888 0.08571428571428573 0  0.9444444444444444 0.08571428571428573 0  1 0.08571428571428573 0  0 0.1 0  0.05555555555555555 0.1 0  0.1111111111111111 0.1 0  0.1666666666666667 0.1 0  0.2222222222222222 0.1 0  0.2777777777777778 0.1 0  0.3333333333333333 0.1 0  0.3888888888888889 0.1 0  0.4444444444444444 0.1 0  0.5 0.1 0  0.5555555555555556 0.1 0  0.6111111111111112 0.1 0  0.6666666666666666 0.1 0  0.7222222222222222 0.1 0  0.7777777777777778 0.1 0  0.8333333333333334 0.1 0  0.8888888888888888 0.1 0  0.9444444444444444 0.1 0  1 0.1 0  0 0 0.01  0.05555555555555555 0 0.01  0.1111111111111111 0 0.01  0.1666666666666667 0 0.01  0.2222222222222222 0 0.01  0.2777777777777778 0 0.01  0.3333333333333333 0 0.01  0.3888888888888889 0 0.01  0.4444444444444444 0 0.01  0.5 0 0.01  0.5555555555555556 0 0.01  0.6111111111111112 0 0.01  0.6666666666666666 0 0.01  0.7222222222222222 0 0.01  0.7777777777777778 0 0.01  0.8333333333333334 0 0.01  0.8888888888888888 0 0.01  0.9444444444444444 0 0.01  1 0 0.01  0 0.01428571428571429 0.01  0.05555555555555555 0.01428571428571429 0.01  0.1111111111111111 0.01428571428571429 0.01  0.1666666666666667 0.01428571428571429 0.01  0.2222222222222222 0.01428571428571429 0.01  0.2777777777777778 0.01428571428571429 0.01  0.3333333333333333 0.01428571428571429 0.01  0.3888888888888889 0.01428571428571429 0.01  0.4444444444444444 0.01428571428571429 0.01  0.5 0.01428571428571429 0.01  0.5555555555555556 0.01428571428571429 0.01  0.6111111111111112 0.01428571428571429 0.01  0.6666666666666666 0.01428571428571429 0.01  0.7222222222222222 0.01428571428571429 0.01  0.7777777777777778 0.01428571428571429 0.01  0.8333333333333334 0.01428571428571429 0.01  0.8888888888888888 0.01428571428571429 0.01  0.9444444444444444 0.01428571428571429 0.01  1 0.01428571428571429 0.01  0 0.02857142857142857 0.01  0.05555555555555555 0.02857142857142857 0.01  0.1111111111111111 0.02857142857142857 0.01  0.1666666666666667 0.02857142857142857 0.01  0.2222222222222222 0.02857142857142857 0.01  0.2777777777777778 0.02857142857142857 0.01  0.3333333333333333 0.02857142857142857 0.01  0.3888888888888889 0.02857142857142857 0.01  0.4444444444444444 0.02857142857142857 0.01  0.5 0.02857142857142857 0.01  0.5555555555555556 0.02857142857142857 0.01  0.6111111111111112 0.02857142857142857 0.01  0.6666666666666666 0.02857142857142857 0.01  0.7222222222222222 0.02857142857142857 0.01  0.7777777777777778 0.02857142857142857 0.01  0.8333333333333334 0.02857142857142857 0.01  0.8888888888888888 0.02857142857142857 0.01  0.9444444444444444 0.02857142857142857 0.01  1 0.02857142857142857 0.01  0 0.04285714285714286 0.01  0.05555555555555555 0.04285714285714286 0.01  0.1111111111111111 0.04285714285714286 0.01  0.1666666666666667 0.04285714285714286 0.01  0.2222222222222222 0.04285714285714286 0.01  0.2777777777777778 0.04285714285714286 0.01  0.3333333333333333 0.04285714285714286 0.01  0.3888888888888889 0.04285714285714286 0.01  0.4444444444444444 0.04285714285714286 0.01  0.5 0.04285714285714286 0.01  0.5555555555555556 0.04285714285714286 0.01  0.6111111111111112 0.04285714285714286 0.01  0.6666666666666666 0.04285714285714286 0.01  0.7222222222222222 0.04285714285714286 0.01  0.7777777777777778 0.04285714285714286 0.01  0.8333333333333334 0.04285714285714286 0.01  0.8888888888888888 0.04285714285714286 0.01  0.9444444444444444 0.04285714285714286 0.01  1 0.04285714285714286 0.01  0 0.05714285714285715 0.01  0.05555555555555555 0.05714285714285715 0.01  0.1111111111111111 0.05714285714285715 0.01  0.1666666666666667 0.05714285714285715 0.01  0.2222222222222222 0.05714285714285715 0.01  0.2777777777777778 0.05714285714285715 0.01  0.3333333333333333 0.05714285714285715 0.01  0.3888888888888889 0.05714285714285715 0.01  0.4444444444444444 0.05714285714285715 0.01  0.5 0.05714285714285715 0.01  0.5555555555555556 0.05714285714285715 0.01  0.6111111111111112 0.05714285714285715 0.01  0.6666666666666666 0.05714285714285715 0.01  0.7222222222222222 0.05714285714285715 0.01  0.7777777777777778 0.05714285714285715 0.01  0.8333333333333334 0.05714285714285715 0.01  0.8888888888888888 0.05714285714285715 0.01  0.9444444444444444 0.05714285714285715 0.01  1 0.05714285714285715 0.01  0 0.07142857142857142 0.01  0.05555555555555555 0.07142857142857142 0.01  0.1111111111111111 0.07142857142857142 0.01  0.1666666666666667 0.07142857142857142 0.01  0.2222222222222222 0.07142857142857142 0.01  0.2777777777777778 0.07142857142857142 0.01  0.3333333333333333 0.07142857142857142 0.01  0.3888888888888889 0.07142857142857142 0.01  0.4444444444444444 0.07142857142857142 0.01  0.5 0.07142857142857142 0.01  0.5555555555555556 0.07142857142857142 0.01  0.6111111111111112 0.07142857142857142 0.01  0.6666666666666666 0.07142857142857142 0.01  0.7222222222222222 0.07142857142857142 0.01  0.7777777777777778 0.07142857142857142 0.01  0.8333333333333334 0.07142857142857142 0.01  0.8888888888888888 0.07142857142857142 0.01  
[...]
<PointData  Vectors="f_33"> 
<DataArray  type="Float64"  Name="f_33"  NumberOfComponents="3" format="ascii">0.0000000000000000e+00 0.0000000000000000e+00 0.0000000000000000e+00  8.1818170175377658e-04 2.5191404291478557e-05 1.2361261768277499e-03  1.5176223206957089e-03 -1.3228766157661462e-04 4.7228891267052566e-03  2.1485928463912379e-03 -3.8439317425564590e-04 1.0280909646152662e-02  2.7130228587317804e-03 -7.1275689029081908e-04 1.7692886980167730e-02  3.2126203689177148e-03 -1.1057906496088671e-03 2.6753703710105974e-02  3.6490656096174428e-03 -1.5545588619957469e-03 3.7264492194457093e-02  4.0246410779669400e-03 -2.0511862338764373e-03 4.9033068640784196e-02  4.3422822861782142e-03 -2.5883821551247097e-03 6.1875437619973821e-02  4.6055341083117672e-03 -3.1593171794194398e-03 7.5617528397491848e-02  4.8184918856000875e-03 -3.7576206843101347e-03 9.0096909988222035e-02  4.9857342034688818e-03 -4.3774191405822910e-03 1.0516437495507662e-01  5.1122498837464373e-03 -5.0133862775107122e-03 1.2068533536113568e-01  5.2033639354746091e-03 -5.6607948052964192e-03 1.3654100664443086e-01  5.2646678506805492e-03 -6.3155662908483583e-03 1.5262937922402181e-01  5.3019593038029821e-03 -6.9743186711119926e-03 1.6886599638996660e-01  5.3211980498564645e-03 -7.6344115116253417e-03 1.8518457148416625e-01  5.3284894913545799e-03 -8.2939864508612890e-03 2.0153750109112520e-01  5.3300240839520979e-03 -8.9520508786997133e-03 2.1789649053984042e-01  0.0000000000000000e+00 0.0000000000000000e+00 0.0000000000000000e+00  7.9152074394550230e-04 -1.4299775755678214e-05 1.2724073354176309e-03  1.5184905708035188e-03 -1.6679020140829132e-04 4.7483258607954083e-03  2.1738774287803791e-03 -4.1521139636734673e-04 1.0280612532448982e-02  2.7607809951975689e-03 -7.4006514223693765e-04 1.7664450176421008e-02  3.2807594213033558e-03 -1.1296944452856093e-03 2.6698117293297453e-02  3.7354968151755946e-03 -1.5751797422858993e-03 3.7183872972299463e-02  4.1273028828888491e-03 -2.0686783663190871e-03 4.8929918297591940e-02  4.4591518291696103e-03 -2.6029323818459013e-03 6.1752369839762900e-02  4.7346426172010401e-03 -3.1711422042475603e-03 7.5477150670535842e-02  4.9579436328967301e-03 -3.7669636105273877e-03 8.9941761669614387e-02  5.1337268054948513e-03 -4.3845456470494523e-03 1.0499688744797762e-01  5.2670945374438827e-03 -5.0185806717359671e-03 1.2050780237772953e-01  5.3635048006679276e-03 -5.6643562344865584e-03 1.3635556039486391e-01  5.4287001253828801e-03 -6.3178053505680643e-03 1.5243797109434298e-01  5.4686455141308744e-03 -6.9755545972958561e-03 1.6867038130661174e-01  5.4894810416665010e-03 -7.6349702416305650e-03 1.8498629450804793e-01  5.4975083174291289e-03 -8.2941968326056530e-03 2.0133787995286309e-01  5.4992625820236944e-03 -8.9521602376392995e-03 2.1769655901526097e-01  0.0000000000000000e+00 0.0000000000000000e+00 0.0000000000000000e+00  7.9959483599675244e-04 -4.4679545487042780e-05 1.2873823252794860e-03  1.5442494104179320e-03 -2.0118060698856821e-04 4.7492389490577007e-03  2.2201502781833775e-03 -4.4823386666706887e-04 1.0256970201521186e-02  2.8266096835382255e-03 -7.7015766250250711e-04 1.7614918794127531e-02  3.3644227704519203e-03 -1.1563899232237800e-03 2.6623887498523048e-02  3.8351088121489079e-03 -1.5984094078443389e-03 3.7087048348783000e-02  4.2409623817949446e-03 -2.0885325201503422e-03 4.8812915060473069e-02  4.5849946580391069e-03 -2.6195787945143909e-03 6.1617677862018265e-02  4.8708699879697562e-03 -3.1847964012544161e-03 7.5327226444067807e-02  5.1028442675451124e-03 -3.7778759674031641e-03 8.9778971553524933e-02  5.2856966342719504e-03 -4.3929940900517168e-03 1.0482347139032275e-01  5.4246549639851366e-03 -5.0248653674766670e-03 1.2032584719902034e-01  5.5253197959573000e-03 -5.6687951754485558e-03 1.3616697872091646e-01  5.5935921957189095e-03 -6.3207305539810773e-03 1.5224448450268857e-01  5.6356103428986211e-03 -6.9773088300994802e-03 1.6847350697089436e-01  5.6576993333711445e-03 -7.6359046815319027e-03 1.8478733446218440e-01  5.6663526986672407e-03 -8.2946709913161529e-03 2.0113791004142570e-01  5.6683206825750999e-03 -8.9524965678997401e-03 2.1749639355971989e-01  0.0000000000000000e+00 0.0000000000000000e+00 0.0000000000000000e+00  8.1305108123560339e-04 -7.1497487858047996e-05 1.2842487281414716e-03  1.5755324133559839e-03 -2.3512088160129531e-04 4.7246489139370421e-03  2.2715365850119107e-03 -4.8258043065655683e-04 1.0207804536953784e-02  2.8970551908645546e-03 -8.0213473269169749e-04 1.7541746728281009e-02  3.4521532677656429e-03 -1.1850452012814091e-03 2.6528513827343506e-02  3.9382308563881028e-03 -1.6234902215140031e-03 3.6971722302264441e-02  4.3575915974051471e-03 -2.1100633816689266e-03 4.8680020336849567e-02  4.7132957698421364e-03 -2.6377071046849634e-03 6.1469592193047901e-02  5.0090807319563332e-03 -3.1997355337690437e-03 7.5166249772386881e-02  5.2492955403502795e-03 -3.7898823046517175e-03 8.9607283609743446e-02  5.4388310336045036e-03 -4.4023559356367575e-03 1.0464310252796134e-01  5.5830441787904873e-03 -5.0318961665044380e-03 1.2013865620477526e-01  5.6876809580316667e-03 -5.6738284863198478e-03 1.3597463522024905e-01  5.7588032242871148e-03 -6.3241159409656526e-03 1.5204845499234496e-01  5.8027242467924550e-03 -6.9794083299922734e-03 1.6827504398008508e-01  5.8259560458040786e-03 -7.6370900886598460e-03 1.8458746836613987e-01  5.8351810204608197e-03 -8.2953252331989160e-03 2.0093744087210297e-01  5.8373397106297586e-03 -8.9530131864762174e-03 2.1729585946605726e-01  0.0000000000000000e+00 0.0000000000000000e+00 0.0000000000000000e+00  8.2485125227261104e-04 -9.8454234469588266e-05 1.2644158595343392e-03  1.6071606153735610e-03 -2.6967493143481103e-04 4.6757540085393739e-03  2.3240863314099142e-03 -5.1816552245249772e-04 1.0133208596229031e-02  2.9688783218769742e-03 -8.3560730561531976e-04 1.7444608651815161e-02  3.5412465829841549e-03 -1.2152051064307091e-03 2.6411531000501275e-02  4.0426202613836285e-03 -1.6499743837885465e-03 3.6837405310959720e-02  4.4753642595193504e-03 -2.1328538774227899e-03 4.8530767249798032e-02  4.8426072686548246e-03 -2.6569383460782530e-03 6.1307686322604187e-02  5.1481678271680974e-03 -3.2156206677823934e-03 7.4993840363895364e-02  5.3964922374544425e-03 -3.8026834713201937e-03 8.9426364700971872e-02  5.5925854875632126e-03 -4.4123704906127307e-03 1.0445549362124092e-01  5.7419353524767727e-03 -5.0394488198680747e-03 1.1994598565834781e-01  5.8504345700619515e-03 -5.6792658142743764e-03 1.3577832653753968e-01  5.9243068066707708e-03 -6.3278020733085602e-03 1.5184971588917637e-01  5.9700413728173670e-03 -6.9817213221756332e-03 1.6807485802469124e-01  5.9943390515096728e-03 -7.6384188265274516e-03 1.8438658902547106e-01  6.0040736592252841e-03 -8.2960713952079865e-03 2.0073638508568967e-01  6.0063804123562459e-03 -8.9536290783868121e-03 2.1709488806345045e-01  0.0000000000000000e+00 0.0000000000000000e+00 0.0000000000000000e+00  8.3255427961173979e-04 -1.2872542086544278e-04 1.2271096116676819e-03  1.6367333905356030e-03 -3.0656365399182753e-04 4.6023793158658051e-03  2.3757209959186418e-03 -5.5561045915191723e-04 1.0033093271752051e-02  3.0402673672832842e-03 -8.7071620388772105e-04 1.7323335754168962e-02  3.6301390315140862e-03 -1.2468341741099782e-03 2.6272725645574396e-02  4.1469518049598222e-03 -1.6777623935267359e-03 3.6683877812036726e-02  4.5931809540124390e-03 -2.1567812453064869e-03 4.8364949442693261e-02  4.9720399883640565e-03 -2.6771420136343723e-03 6.1131775156759702e-02  5.2874345871593001e-03 -3.2323199466115352e-03 7.4809837061032378e-02  5.5439104885149646e-03 -3.8161492696324735e-03 8.9236077894115653e-02  5.7465876441893868e-03 -4.4229109085620706e-03 1.0426053116244902e-01  5.9010849945620543e-03 -5.0474009383523538e-03 1.1974774412967239e-01  6.0134422592825285e-03 -5.6849899918315558e-03 1.3557798164748555e-01  6.0900450888647711e-03 -6.3316775077523115e-03 1.5164821464987813e-01  6.1375590158619566e-03 -6.9841424409154409e-03 1.6787291276483302e-01  6.1628752995300760e-03 -7.6397920358991971e-03 1.8418467323213500e-01  6.1730666280395688e-03 -8.2968167640241220e-03 2.0053472895363955e-01  6.1754768568255776e-03 -8.9542470462764430e-03 2.1689347494548755e-01  0.0000000000000000e+00 0.0000000000000000e+00 0.0000000000000000e+00  8.3261523543248285e-04 -1.6509646474494161e-04 1.1686626319723089e-03  1.6601001024520762e-03 -3.4742098875697460e-04 4.5024966027151156e-03  2.4222561603734830e-03 -5.9570131225666965e-04 9.9064512058250030e-03  3.1072767749803854e-03 -9.0779874457737786e-04 1.7177279141267866e-02  3.7152686918109170e-03 -1.2800685206471362e-03 2.6111609414416367e-02  4.2480938806842023e-03 -1.7068997251795219e-03 3.6510752627394012e-02  4.7083451615005777e-03 -2.1818454951728736e-03 4.8182259701479109e-02  5.0993188354058099e-03 -2.6982912452936277e-03 6.0941621026064187e-02  5.4250040678787649e-03 -3.2497879754449905e-03 7.4614064338296704e-02  5.6900421445875600e-03 -3.8302202470825316e-03 8.9036303070110553e-02  5.8996643784436295e-03 -4.4339067201197655e-03 1.0405814366689520e-01  6.0596178023912912e-03 -5.0556735279870058e-03 1.1954390179918697e-01  6.1760866360090943e-03 -5.6909157389211529e-03 1.3537360523673148e-01  6.2556165684668459e-03 -6.3356527360313147e-03 1.5144398316464736e-01  6.3050477653964548e-03 -6.9865798739654067e-03 1.6766925978616337e-01  6.3314617927289433e-03 -7.6411178586111312e-03 1.8398178398999424e-01  6.3421406231581661e-03 -8.2974697363317855e-03 2.0033253818501973e-01  6.3446449939923832e-03 -8.9547653858533822e-03 2.1669168143339576e-01  0.0000000000000000e+00 0.0000000000000000e+00 0.0000000000000000e+00  8.0909462772000922e-04 -2.0541876003247954e-04 1.0873201651211029e-03  1.6593771730296059e-03 -3.9018924791649228e-04 4.3761443723444567e-03  2.4462631470455786e-03 -6.3645091871090845e-04 9.7543960234631778e-03  3.1537200720883592e-03 -9.4496533725356251e-04 1.7007876898578616e-02  3.7820658112989159e-03 -1.3131738805568687e-03 2.5929670518276868e-02  4.3332088863136395e-03 -1.7358421090021413e-03 3.6319459309212564e-02  4.8097506852549836e-03 -2.2067036354559231e-03 4.7984026252116535e-02  5.2150126654994418e-03 -2.7192418152185080e-03 6.0738433963130119e-02  5.5530319081220410e-03 -3.2670695944710219e-03 7.4407607795017608e-02  5.8285195492623672e-03 -3.8441166527919098e-03 8.8828000068583851e-02  6.0467980302816244e-03 -4.4447374591250052e-03 1.0384916664437864e-01  6.2137261305327991e-03 -5.0637875490698826e-03 1.1933517317749426e-01  6.3356194428492527e-03 -5.6966862647190664e-03 1.3516579564254275e-01  6.4191733429773802e-03 -6.3394729883012400e-03 1.5123750965560609e-01  6.4713946399141357e-03 -6.9888597590351924e-03 1.6746428428740154e-01  6.4995479170510736e-03 -7.6422826408466720e-03 1.8377821113826057e-01  6.5111319636984464e-03 -8.2979540793401505e-03 2.0013000260944586e-01  6.5139028983907240e-03 -8.9551137571338563e-03 2.1648959308164856e-01  0.0000000000000000e+00 0.0000000000000000e+00 0.0000000000000000e+00  3.5770593523848636e-04 -7.1911561053550705e-06 1.2017111223100682e-03  6.7323063597392470e-04 -1.5626960815361243e-04 4.6913847956084652e-03  9.5584471303264580e-04 -3.8921969981246357e-04 1.0252273093982354e-02  1.2086752777637801e-03 -6.9710289447404725e-04 1.7667196689477149e-02  1.4326073897498932e-03 -1.0705120927510484e-03 2.6730952262169524e-02  1.6283257515133326e-03 -1.5012108642191286e-03 3.7244621797352835e-02  1.7968138830169948e-03 -1.9815655399971154e-03 4.9015979792443695e-02  1.9393750061425662e-03 -2.5043568828231897e-03 6.1860996645346548e-02  2.0575980123218860e-03 -3.0627512622958355e-03 7.5605572356312212e-02  2.1533229226181685e-03 -3.6503327482704409e-03 9.0087250380400941e-02  2.2286063721372526e-03 -4.2611550522939495e-03 1.0515680120322533e-01  2.2856858670006531e-03 -4.8897980914934898e-03 1.2067961832495649e-01  2.3269440166535970e-03 -5.5314236586909210e-03 1.3653690207620514e-01  2.3548749223239215e-03 -6.1818284222232766e-03 1.5262663096456858e-01  2.3720550903997628e-03 -6.8374940695711513e-03 1.6886433909896484e-01  2.3811222000720434e-03 -7.4956340823905303e-03 1.8518373247687223e-01  2.3847657458794386e-03 -8.1542307936009924e-03 2.0153719981326823e-01  2.3856518058182801e-03 -8.8121050135445654e-03 2.1789635979134281e-01  0.0000000000000000e+00 0.0000000000000000e+00 0.0000000000000000e+00  3.6180600349411282e-04 -3.0870476823774693e-05 1.2340600893006772e-03  7.0496430640177177e-04 -1.7503132472259297e-04 4.7161590644667472e-03  1.0090274697809706e-03 -4.0603140769890312e-04 1.0251649189194318e-02  1.2813301306812967e-03 -7.1204208795417896e-04 1.7638550033322615e-02  1.5226542103480673e-03 -1.0836185211203666e-03 2.6675198667992794e-02  1.7337512853148993e-03 -1.5125387875446329e-03 3.7163854729117728e-02  1.9156741291893587e-03 -1.9911925946450959e-03 4.8912693613488614e-02  2.0697977343240507e-03 -2.5123812060878397e-03 6.1737803392617148e-02  2.1977935314989633e-03 -3.0692884477922571e-03 7.5465079879385263e-02  2.3015994219106337e-03 -3.6555132768004875e-03 8.9931998994665655e-02  2.3833867063431714e-03 -4.2651218691658194e-03 1.0498922330922976e-01  2.4455242840133507e-03 -4.8927042357506754e-03 1.2050200843157105e-01  2.4905421842614365e-03 -5.5334300176012362e-03 1.3635139288529022e-01  2.5210970049445534e-03 -6.1831017281131391e-03 1.5243517400754095e-01  2.5399416227269503e-03 -6.8382053022297291e-03 1.6866868912118016e-01  2.5499019605539071e-03 -7.4959577252907443e-03 1.8498543421178212e-01  2.5538713792543468e-03 -8.1543447621093158e-03 2.0133756959460208e-01  2.5548388225150845e-03 -8.8121459108865818e-03 2.1769645703280149e-01  0.0000000000000000e+00 0.0000000000000000e+00 0.0000000000000000e+00  3.7583131865368008e-04 -4.6853817912050005e-05 1.2472042904250373e-03  7.3914886996981279e-04 -1.9231143582206262e-04 4.7150528291526024e-03  1.0638601531660985e-03 -4.2250684416197796e-04 1.0226800932109417e-02  1.3550962396526264e-03 -7.2699539192361306e-04 1.7588151273287275e-02  1.6134480215877081e-03 -1.0968578150495041e-03 2.6600277632469117e-02  1.8396405753179717e-03 -1.5240428598891622e-03 3.7066455639853772e-02  2.0347630624953116e-03 -2.0010115839048360e-03 4.8795209687513059e-02  2.2002518193715696e-03 -2.5206012944672031e-03 6.1602713601721412e-02  2.3378580016091693e-03 -3.0760187704302259e-03 7.5314833602106349e-02  2.4496170724361901e-03 -3.6608799993664166e-03 8.9768956370677069e-02  2.5378153413443860e-03 -4.2692646469705883e-03 1.0481561794732268e-01  2.6049534670049340e-03 -4.8957735235094979e-03 1.2031992035327389e-01  2.6537091151917608e-03 -5.5355847835303973e-03 1.3616272736132956e-01  2.6869014480939020e-03 -6.1845074679837521e-03 1.5224164468983600e-01  2.7074596967613957e-03 -6.8390323586110281e-03 1.6847180470717169e-01  2.7183977058205439e-03 -7.4963805230206775e-03 1.8478648786425877e-01  2.7228061597727171e-03 -8.1545441698004650e-03 2.0113762822802780e-01  2.7239142579070013e-03 -8.8122839151948146e-03 2.1749633450873332e-01  0.0000000000000000e+00 0.0000000000000000e+00 0.0000000000000000e+00  3.9255063561098190e-04 -6.0776745562495641e-05 1.2425549332548411e-03  7.7567569980930466e-04 -2.0908765574257016e-04 4.6888239902150627e-03  1.1206577363382900e-03 -4.3937152384562013e-04 1.0176379167190691e-02  1.4305712036395515e-03 -7.4268425735906697e-04 1.7514003632999414e-02  1.7057045514556213e-03 -1.1108997847802163e-03 2.6504104442351732e-02  1.9467534560085493e-03 -1.5363177834911645e-03 3.6950456508124271e-02  2.1548495766470421e-03 -2.0115353301931225e-03 4.8661746204752762e-02  2.3314942143598375e-03 -2.5294490191676232e-03 6.1454152264597994e-02  2.4785209019163564e-03 -3.0832973849243689e-03 7.5153466743586611e-02  2.5980647798683350e-03 -3.6667172454586897e-03 8.9596956938488945e-02  2.6925288785759820e-03 -4.2738037729520570e-03 1.0463500931727866e-01  2.7645469775772666e-03 -4.8991699565011752e-03 1.2013255379108125e-01  2.8169454303527386e-03 -5.5380036186459970e-03 1.3597026433140200e-01  2.8527067583566951e-03 -6.1861213871797259e-03 1.5204554287990951e-01  2.8749372701153612e-03 -6.8400197984178398e-03 1.6827330721411152e-01  2.8868395459029144e-03 -7.4969245245106600e-03 1.8458661524031159e-01  2.8916977173704451e-03 -8.1548359188997662e-03 2.0093717144491888e-01  2.8929486484398723e-03 -8.8125250044170395e-03 2.1729582811440423e-01  0.0000000000000000e+00 0.0000000000000000e+00 0.0000000000000000e+00  4.0861958580372778e-04 -7.5255919015290582e-05 1.2218141414976271e-03  8.1254796405104456e-04 -2.2658645563563068e-04 4.6387091070104729e-03  1.1780589410442098e-03 -4.5726787668225031e-04 1.0100638874383052e-02  1.5067100735720060e-03 -7.5950519455990177e-04 1.7415898010798528e-02  1.7985913798595535e-03 -1.1260429729673701e-03 2.6386300590265963e-02  2.0544361498610647e-03 -1.5496030431655615e-03 3.6815436539945755e-02  2.2754377053944039e-03 -2.0229569676137420e-03 4.8511892704606208e-02  2.4631690036154329e-03 -2.5390769406201273e-03 6.1291739510404050e-02  2.6195489240130607e-03 -3.0912403320993084e-03 7.4980637164332037e-02  2.7468139244630281e-03 -3.6731082516254809e-03 8.9415698107332742e-02  2.8474848148731316e-03 -4.2787934390282620e-03 1.0444713389598370e-01  2.9243292631192137e-03 -4.9029225688076959e-03 1.1993968266696914e-01  2.9803228979449902e-03 -5.5406944029330130e-03 1.3577381284020040e-01  3.0186120525889865e-03 -6.1879343148300977e-03 1.5184670987776855e-01  3.0424806061930478e-03 -6.8411456416291767e-03 1.6807306673340819e-01  3.0553212178617926e-03 -7.4975591910411568e-03 1.8438571069941273e-01  3.0606125314985157e-03 -8.1551841682771433e-03 2.0073611068617098e-01  3.0619884486590967e-03 -8.8128289025893470e-03 2.1709486568246453e-01  0.0000000000000000e+00 0.0000000000000000e+00 0.0000000000000000e+00  4.2278853836027059e-04 -9.2299871498570594e-05 1.1844996863457908e-03  8.4845918881610487e-04 -2.4599510740583172e-04 4.5646875537548280e-03  1.2349931456160409e-03 -4.7679547084442271e-04 9.9997134356031286e-03  1.5825847311555334e-03 -7.7778723727836639e-04 1.7293859392444485e-02  1.8913156848679074e-03 -1.1425007118328234e-03 2.6246809610370975e-02  2.1620279686240659e-03 -1.5640543265525574e-03 3.6661304955413886e-02  2.3959925889281445e-03 -2.0353950926417365e-03 4.8345548969857009e-02  2.5948579634050470e-03 -2.5495748170454393e-03 6.1115376900938524e-02  2.7606295019909277e-03 -3.0999126965370475e-03 7.4796253067862598e-02  2.8956453412126294e-03 -3.6800962724714685e-03 8.9225096888876546e-02  3.0025441370249250e-03 -4.2842575342973083e-03 1.0425191853799533e-01  3.0842274348409646e-03 -4.9070382765697427e-03 1.1974124421090032e-01  3.1438201279711054e-03 -5.5436494816873344e-03 1.3557332076819151e-01  3.1846323574588739e-03 -6.1899264537893500e-03 1.5164510430480171e-01  3.2101256517085277e-03 -6.8423804861214750e-03 1.6787105242049374e-01  3.2238842086166025e-03 -7.4982482791398830e-03 1.8418375282411714e-01  3.2295870882521256e-03 -8.1555475429526073e-03 2.0053443165469378e-01  3.2310638303462407e-03 -8.8131442799301764e-03 2.1689344073565511e-01  0.0000000000000000e+00 0.0000000000000000e+00 0.0000000000000000e+00  4.3415285291074251e-04 -1.1436923479895461e-04 1.1273372817556795e-03  8.8197482529964871e-04 -2.6891163649960415e-04 4.4649972284792087e-03  1.2899074061187127e-03 -4.9900236791582250e-04 9.8728743226792464e-03  1.6566869963418980e-03 -7.9826709170168712e-04 1.7147493451416487e-02  1.9825028963551326e-03 -1.1608350631055039e-03 2.6085358113311873e-02  2.2683192143691110e-03 -1.5801220630913971e-03 3.6487851110469288e-02  2.5154759413193056e-03 -2.0492154273555455e-03 4.8162549853477801e-02  2.7256902558411120e-03 -2.5612366104342974e-03 6.0924938084286201e-02  2.9010501742528999e-03 -3.1095447481467196e-03 7.4600222961296661e-02  3.0439929038081088e-03 -3.6878544634451988e-03 8.9025093350421788e-02  3.1572729930825143e-03 -4.2903184047027604e-03 1.0404933162079442e-01  3.2439243478918846e-03 -4.9115950431574832e-03 1.1953723177475911e-01  3.3072199537727194e-03 -5.5469090707605832e-03 1.3536880302138399e-01  3.3506328648203075e-03 -6.19