<?xml version="1.0"?>
<VTKFile type="UnstructuredGrid"  version="0.1"  >
<UnstructuredGrid>
<Piece  NumberOfPoints="760" NumberOfCells="3024">
<Points>
<DataArray  type="Float64"  NumberOfComponents="3"  format="ascii">0 0 0  0.05555555555555555 0 0  0.1111111111111111 0 0  0.1666666666666667 0 0  0.2222222222222222 0 0  0.2777777777777778 0 0  0.3333333333333333 0 0  0.3888888888888889 0 0  0.4444444444444444 0 0  0.5 0 0  0.5555555555555556 0 0  0.6111111111111112 0 0  0.6666666666666666 0 0  0.7222222222222222 0 0  0.7777777777777778 0 0  0.8333333333333334 0 0  0.8888888888888888 0 0  0.9444444444444444 0 0  1 0 0  0 0.01428571428571429 0  0.05555555555555555 0.01428571428571429 0  0.1111111111111111 0.01428571428571429 0  0.1666666666666667 0.01428571428571429 0  0.2222222222222222 0.01428571428571429 0  0.2777777777777778 0.01428571428571429 0  0.3333333333333333 0.01428571428571429 0  0.3888888888888889 0.01428571428571429 0  0.4444444444444444 0.01428571428571429 0  0.5 0.01428571428571429 0  0.5555555555555556 0.01428571428571429 0  0.6111111111111112 0.01428571428571429 0  0.6666666666666666 0.01428571428571429 0  0.7222222222222222 0.01428571428571429 0  0.7777777777777778 0.01428571428571429 0  0.8333333333333334 0.01428571428571429 0  0.8888888888888888 0.01428571428571429 0  0.9444444444444444 0.01428571428571429 0  1 0.01428571428571429 0  0 0.02857142857142857 0  0.05555555555555555 0.02857142857142857 0  0.1111111111111111 0.02857142857142857 0  0.1666666666666667 0.02857142857142857 0  0.2222222222222222 0.02857142857142857 0  0.2777777777777778 0.02857142857142857 0  0.3333333333333333 0.02857142857142857 0  0.3888888888888889 0.02857142857142857 0  0.4444444444444444 0.02857142857142857 0  0.5 0.02857142857142857 0  0.5555555555555556 0.02857142857142857 0  0.6111111111111112 0.02857142857142857 0  0.6666666666666666 0.02857142857142857 0  0.7222222222222222 0.02857142857142857 0  0.7777777777777778 0.02857142857142857 0  0.8333333333333334 0.02857142857142857 0  0.8888888888888888 0.02857142857142857 0  0.9444444444444444 0.02857142857142857 0  1 0.02857142857142857 0  0 0.04285714285714286 0  0.05555555555555555 0.04285714285714286 0  0.1111111111111111 0.04285714285714286 0  0.1666666666666667 0.04285714285714286 0  0.2222222222222222 0.04285714285714286 0  0.2777777777777778 0.04285714285714286 0  0.3333333333333333 0.04285714285714286 0  0.3888888888888889 0.04285714285714286 0  0.4444444444444444 0.04285714285714286 0  0.5 0.04285714285714286 0  0.5555555555555556 0.04285714285714286 0  0.6111111111111112 0.04285714285714286 0  0.6666666666666666 0.04285714285714286 0  0.7222222222222222 0.04285714285714286 0  0.7777777777777778 0.04285714285714286 0  0.8333333333333334 0.04285714285714286 0  0.8888888888888888 0.04285714285714286 0  0.9444444444444444 0.04285714285714286 0  1 0.04285714285714286 0  0 0.05714285714285715 0  0.05555555555555555 0.05714285714285715 0  0.1111111111111111 0.05714285714285715 0  0.1666666666666667 0.05714285714285715 0  0.2222222222222222 0.05714285714285715 0  0.2777777777777778 0.05714285714285715 0  0.3333333333333333 0.05714285714285715 0  0.3888888888888889 0.05714285714285715 0  0.4444444444444444 0.05714285714285715 0  0.5 0.05714285714285715 0  0.5555555555555556 0.05714285714285715 0  0.6111111111111112 0.05714285714285715 0  0.6666666666666666 0.05714285714285715 0  0.7222222222222222 0.05714285714285715 0  0.7777777777777778 0.05714285714285715 0  0.8333333333333334 0.05714285714285715 0  0.8888888888888888 0.05714285714285715 0  0.9444444444444444 0.05714285714285715 0  1 0.05714285714285715 0  0 0.07142857142857142 0  0.05555555555555555 0.07142857142857142 0  0.1111111111111111 0.07142857142857142 0  0.1666666666666667 0.07142857142857142 0  0.2222222222222222 0.07142857142857142 0  0.2777777777777778 0.07142857142857142 0  0.3333333333333333 0.07142857142857142 0  0.3888888888888889 0.07142857142857142 0  0.4444444444444444 0.07142857142857142 0  0.5 0.07142857142857142 0  0.5555555555555556 0.07142857142857142 0  0.6111111111111112 0.07142857142857142 0  0.6666666666666666 0.07142857142857142 0  0.7222222222222222 0.07142857142857142 0  0.7777777777777778 0.07142857142857142 0  0.8333333333333334 0.07142857142857142 0  0.8888888888888888 0.07142857142857142 0  0.9444444444444444 0.07142857142857142 0  1 0.07142857142857142 0  0 0.08571428571428573 0  0.05555555555555555 0.08571428571428573 0  0.1111111111111111 0.08571428571428573 0  0.1666666666666667 0.08571428571428573 0  0.2222222222222222 0.08571428571428573 0  0.2777777777777778 0.08571428571428573 0  0.3333333333333333 0.08571428571428573 0  0.3888888888888889 0.08571428571428573 0  0.4444444444444444 0.08571428571428573 0  0.5 0.08571428571428573 0  0.5555555555555556 0.08571428571428573 0  0.6111111111111112 0.08571428571428573 0  0.6666666666666666 0.08571428571428573 0  0.7222222222222222 0.08571428571428573 0  0.7777777777777778 0.08571428571428573 0  0.8333333333333334 0.08571428571428573 0  0.8888888888888888 0.08571428571428573 0  0.9444444444444444 0.08571428571428573 0  1 0.08571428571428573 0  0 0.1 0  0.05555555555555555 0.1 0  0.1111111111111111 0.1 0  0.1666666666666667 0.1 0  0.2222222222222222 0.1 0  0.2777777777777778 0.1 0  0.3333333333333333 0.1 0  0.3888888888888889 0.1 0  0.4444444444444444 0.1 0  0.5 0.1 0  0.5555555555555556 0.1 0  0.6111111111111112 0.1 0  0.6666666666666666 0.1 0  0.7222222222222222 0.1 0  0.7777777777777778 0.1 0  0.8333333333333334 0.1 0  0.8888888888888888 0.1 0  0.9444444444444444 0.1 0  1 0.1 0  0 0 0.01  0.05555555555555555 0 0.01  0.1111111111111111 0 0.01  0.1666666666666667 0 0.01  0.2222222222222222 0 0.01  0.2777777777777778 0 0.01  0.3333333333333333 0 0.01  0.3888888888888889 0 0.01  0.4444444444444444 0 0.01  0.5 0 0.01  0.5555555555555556 0 0.01  0.6111111111111112 0 0.01  0.6666666666666666 0 0.01  0.7222222222222222 0 0.01  0.7777777777777778 0 0.01  0.8333333333333334 0 0.01  0.8888888888888888 0 0.01  0.9444444444444444 0 0.01  1 0 0.01  0 0.01428571428571429 0.01  0.05555555555555555 0.01428571428571429 0.01  0.1111111111111111 0.01428571428571429 0.01  0.1666666666666667 0.01428571428571429 0.01  0.2222222222222222 0.01428571428571429 0.01  0.2777777777777778 0.01428571428571429 0.01  0.3333333333333333 0.01428571428571429 0.01  0.3888888888888889 0.01428571428571429 0.01  0.4444444444444444 0.01428571428571429 0.01  0.5 0.01428571428571429 0.01  0.5555555555555556 0.01428571428571429 0.01  0.6111111111111112 0.01428571428571429 0.01  0.6666666666666666 0.01428571428571429 0.01  0.7222222222222222 0.01428571428571429 0.01  0.7777777777777778 0.01428571428571429 0.01  0.8333333333333334 0.01428571428571429 0.01  0.8888888888888888 0.01428571428571429 0.01  0.9444444444444444 0.01428571428571429 0.01  1 0.01428571428571429 0.01  0 0.02857142857142857 0.01  0.05555555555555555 0.02857142857142857 0.01  0.1111111111111111 0.02857142857142857 0.01  0.1666666666666667 0.02857142857142857 0.01  0.2222222222222222 0.02857142857142857 0.01  0.2777777777777778 0.02857142857142857 0.01  0.3333333333333333 0.02857142857142857 0.01  0.3888888888888889 0.02857142857142857 0.01  0.4444444444444444 0.02857142857142857 0.01  0.5 0.02857142857142857 0.01  0.5555555555555556 0.02857142857142857 0.01  0.6111111111111112 0.02857142857142857 0.01  0.6666666666666666 0.02857142857142857 0.01  0.7222222222222222 0.02857142857142857 0.01  0.7777777777777778 0.02857142857142857 0.01  0.8333333333333334 0.02857142857142857 0.01  0.8888888888888888 0.02857142857142857 0.01  0.9444444444444444 0.02857142857142857 0.01  1 0.02857142857142857 0.01  0 0.04285714285714286 0.01  0.05555555555555555 0.04285714285714286 0.01  0.1111111111111111 0.04285714285714286 0.01  0.1666666666666667 0.04285714285714286 0.01  0.2222222222222222 0.04285714285714286 0.01  0.2777777777777778 0.04285714285714286 0.01  0.3333333333333333 0.04285714285714286 0.01  0.3888888888888889 0.04285714285714286 0.01  0.4444444444444444 0.04285714285714286 0.01  0.5 0.04285714285714286 0.01  0.5555555555555556 0.04285714285714286 0.01  0.6111111111111112 0.04285714285714286 0.01  0.6666666666666666 0.04285714285714286 0.01  0.7222222222222222 0.04285714285714286 0.01  0.7777777777777778 0.04285714285714286 0.01  0.8333333333333334 0.04285714285714286 0.01  0.8888888888888888 0.04285714285714286 0.01  0.9444444444444444 0.04285714285714286 0.01  1 0.04285714285714286 0.01  0 0.05714285714285715 0.01  0.05555555555555555 0.05714285714285715 0.01  0.1111111111111111 0.05714285714285715 0.01  0.1666666666666667 0.05714285714285715 0.01  0.2222222222222222 0.05714285714285715 0.01  0.2777777777777778 0.05714285714285715 0.01  0.3333333333333333 0.05714285714285715 0.01  0.3888888888888889 0.05714285714285715 0.01  0.4444444444444444 0.05714285714285715 0.01  0.5 0.05714285714285715 0.01  0.5555555555555556 0.05714285714285715 0.01  0.6111111111111112 0.05714285714285715 0.01  0.6666666666666666 0.05714285714285715 0.01  0.7222222222222222 0.05714285714285715 0.01  0.7777777777777778 0.05714285714285715 0.01  0.8333333333333334 0.05714285714285715 0.01  0.8888888888888888 0.05714285714285715 0.01  0.9444444444444444 0.05714285714285715 0.01  1 0.05714285714285715 0.01  0 0.07142857142857142 0.01  0.05555555555555555 0.07142857142857142 0.01  0.1111111111111111 0.07142857142857142 0.01  0.1666666666666667 0.07142857142857142 0.01  0.2222222222222222 0.07142857142857142 0.01  0.2777777777777778 0.07142857142857142 0.01  0.3333333333333333 0.07142857142857142 0.01  0.3888888888888889 0.07142857142857142 0.01  0.4444444444444444 0.07142857142857142 0.01  0.5 0.07142857142857142 0.01  0.5555555555555556 0.07142857142857142 0.01  0.6111111111111112 0.07142857142857142 0.01  0.6666666666666666 0.07142857142857142 0.01  0.7222222222222222 0.07142857142857142 0.01  0.7777777777777778 0.07142857142857142 0.01  0.8333333333333334 0.07142857142857142 0.01  0.8888888888888888 0.07142857142857142 0.01  
[...]
<PointData  Vectors="f_33"> 
<DataArray  type="Float64"  Name="f_33"  NumberOfComponents="3" format="ascii">0.0000000000000000e+00 0.0000000000000000e+00 0.0000000000000000e+00  -3.9745534680717278e-04 -6.1610151684940719e-05 -4.9244202272766626e-04  -7.4756920506076048e-04 -1.2122800414908671e-04 -1.8798812331451288e-03  -1.0696506772929978e-03 -2.1604875741789938e-04 -4.1074791903363507e-03  -1.3631414760165799e-03 -3.4717440817271780e-04 -7.1002832602771659e-03  -1.6281398463714666e-03 -5.1236967909657274e-04 -1.0786930194648971e-02  -1.8648029954830120e-03 -7.0842253827817973e-04 -1.5097080535998033e-02  -2.0734500153946752e-03 -9.3186809261944583e-04 -1.9961164963801001e-02  -2.2545908682345562e-03 -1.1792261835549612e-03 -2.5310587193195500e-02  -2.4089574596991604e-03 -1.4471048177769070e-03 -3.1078129555709818e-02  -2.5375414919568090e-03 -1.7322578758808167e-03 -3.7198505276707920e-02  -2.6416345706886768e-03 -2.0316262327913425e-03 -4.3609040001365180e-02  -2.7228671498048581e-03 -2.3423725989620042e-03 -5.0250472278838929e-02  -2.7832441430033937e-03 -2.6619137668968933e-03 -5.7067862579627683e-02  -2.8251757371655505e-03 -2.9879515020423413e-03 -6.4011598105300910e-02  -2.8515026116562904e-03 -3.3185022857731969e-03 -7.1038478128989072e-02  -2.8655167298437772e-03 -3.6519255416538523e-03 -7.8112863189053541e-02  -2.8709850361098386e-03 -3.9869522788647267e-03 -8.5207879527509814e-02  -2.8721712520466745e-03 -4.3227246423170771e-03 -9.2306760572793120e-02  0.0000000000000000e+00 0.0000000000000000e+00 0.0000000000000000e+00  -3.6379968804074064e-04 -4.0870509858753131e-05 -5.0616785374704026e-04  -7.0605790254360925e-04 -1.0255256093548700e-04 -1.8892426265574342e-03  -1.0198135013722836e-03 -1.9899285650162008e-04 -4.1067958280547887e-03  -1.3058277365245897e-03 -3.3173905719998591e-04 -7.0884512517237364e-03  -1.5642760559681633e-03 -4.9854651303055748e-04 -1.0764165958965014e-02  -1.7953136745681502e-03 -6.9619424735562721e-04 -1.5064046177563318e-02  -1.9992342598742292e-03 -9.2120696182991957e-04 -1.9918686598165498e-02  -2.1765083788863084e-03 -1.1700923537152107e-03 -2.5259556328207363e-02  -2.3278163039539470e-03 -1.4394442033532991e-03 -3.1019465076267422e-02  -2.4540865204843751e-03 -1.7259999370982785e-03 -3.7133136594363000e-02  -2.5565361671549122e-03 -2.0266818017839186e-03 -4.3537897075399339e-02  -2.6367102845501387e-03 -2.3386318867113605e-03 -5.0174477104415985e-02  -2.6965178098601679e-03 -2.6592446429638595e-03 -5.6987920069641339e-02  -2.7382628521326921e-03 -2.9861981374271949e-03 -6.3928585533922194e-02  -2.7646702610645050e-03 -3.3174842949671565e-03 -7.0953232589269014e-02  -2.7789056662323951e-03 -3.6514380295694215e-03 -7.8026165903742423e-02  -2.7845967038275504e-03 -3.9867686771065912e-03 -8.5120431865749177e-02  -2.7858973263937643e-03 -4.3226332910087373e-03 -9.2219134753359314e-02  0.0000000000000000e+00 0.0000000000000000e+00 0.0000000000000000e+00  -3.4634437951697856e-04 -2.5398153706924270e-05 -5.1039160214605016e-04  -6.7620143633019645e-04 -8.5262599153063112e-05 -1.8880964759324854e-03  -9.8013390743915095e-04 -1.8235670607421814e-04 -4.0959513359034002e-03  -1.2575481910810395e-03 -3.1636525762934297e-04 -7.0672779268988175e-03  -1.5084440921573105e-03 -4.8464399156892927e-04 -1.0732976203987247e-02  -1.7329043385509854e-03 -6.8382189427784019e-04 -1.5023519592791320e-02  -1.9311761817161653e-03 -9.1036586036842722e-04 -1.9869643107955446e-02  -2.1036877875913705e-03 -1.1607552743582458e-03 -2.5202868844828145e-02  -2.2510724888653746e-03 -1.4315641952623531e-03 -3.0956023784249765e-02  -2.3742041404710384e-03 -1.7195119208661797e-03 -3.7063831874260877e-02  -2.4742363551877823e-03 -2.0215017712685314e-03 -4.3463608533288928e-02  -2.5526413483848336e-03 -2.3346553814734528e-03 -5.0096063892036073e-02  -2.6112458966934867e-03 -2.6563451519867505e-03 -5.6906210668274247e-02  -2.6522627311148976e-03 -2.9842257661388525e-03 -6.3844366326006249e-02  -2.6783161023761514e-03 -3.3162649986263498e-03 -7.0867234900460443e-02  -2.6924609618569303e-03 -3.6507738814122279e-03 -7.7939050988899292e-02  -2.6982016470885350e-03 -3.9864394803614525e-03 -8.5032771875543714e-02  -2.6995579539521039e-03 -4.3224069036967988e-03 -9.2131378079672574e-02  0.0000000000000000e+00 0.0000000000000000e+00 0.0000000000000000e+00  -3.3210633596751881e-04 -1.2985062787637448e-05 -5.0715951834083572e-04  -6.4930663426930070e-04 -6.9654366034458583e-05 -1.8763752546226433e-03  -9.4315597441547018e-04 -1.6656260940270883e-04 -4.0744223707921455e-03  -1.2117747361185766e-03 -3.0148205716116691e-04 -7.0360408260845319e-03  -1.4549008732781146e-03 -4.7106240743689532e-04 -1.0692609855753748e-02  -1.6725557721324832e-03 -6.7167535228856773e-04 -1.4974787767025724e-02  -1.8649480187733563e-03 -8.9968551256433961e-04 -1.9813383820753015e-02  -2.0324672464702175e-03 -1.1515271665260868e-03 -2.5139944693262278e-02  -2.1757024979052984e-03 -1.4237487120087571e-03 -3.0887298175505486e-02  -2.2954754681649790e-03 -1.7130494724740182e-03 -3.6990155240314036e-02  -2.3928788925466427e-03 -2.0163135281437540e-03 -4.3385807602021917e-02  -2.4693150899141331e-03 -2.3306423050136835e-03 -5.0014931218557039e-02  -2.5265318909684798e-03 -2.6533865835178059e-03 -5.6822493381987763e-02  -2.5666541281956141e-03 -2.9821781411546707e-03 -6.3758753774212126e-02  -2.5922092767615337e-03 -3.3149610897685593e-03 -7.0780345166240030e-02  -2.6061462460520990e-03 -3.6500229085812547e-03 -7.7851416332715126e-02  -2.6118528028975336e-03 -3.9860275533047142e-03 -8.4944822455789368e-02  -2.6132240423878692e-03 -4.3220885994072695e-03 -9.2043410269878889e-02  0.0000000000000000e+00 0.0000000000000000e+00 0.0000000000000000e+00  -3.1759054911629451e-04 -2.0577807494036573e-06 -4.9712735034594115e-04  -6.2280643693254987e-04 -5.5314374272182202e-05 -1.8546337169131019e-03  -9.0680933402602143e-04 -1.5163542286692809e-04 -4.0423027993597765e-03  -1.1667090237257342e-03 -2.8722667293957252e-04 -6.9946632502809521e-03  -1.4020643413901700e-03 -4.5796835102424011e-04 -1.0642926149319975e-02  -1.6128796911914520e-03 -6.5992193023643936e-04 -1.4917692823846597e-02  -1.7993449081800306e-03 -8.8932484033469315e-04 -1.9749752836631197e-02  -1.9618184691937443e-03 -1.1425557266031507e-03 -2.5070637330800435e-02  -2.1008479160573327e-03 -1.4161334756099869e-03 -3.0813153781291361e-02  -2.2172039438548888e-03 -1.7067363580415846e-03 -3.6911985162128916e-02  -2.3119190173537113e-03 -2.0112292234816813e-03 -4.3304385789231153e-02  -2.3863260222394132e-03 -2.3266937058555384e-03 -4.9930983369638950e-02  -2.4420943223220364e-03 -2.6504595165205594e-03 -5.6736684791884588e-02  -2.4812614294575860e-03 -2.9801360860822928e-03 -6.3671676072758004e-02  -2.5062589277584459e-03 -3.3136443272650316e-03 -7.0692502248685077e-02  -2.5199314975959774e-03 -3.6492482778003547e-03 -7.7763209976196263e-02  -2.5255538959631238e-03 -3.9855874283030099e-03 -8.4856537533325796e-02  -2.5269081097580755e-03 -4.3217324707022671e-03 -9.1955191626142033e-02  0.0000000000000000e+00 0.0000000000000000e+00 0.0000000000000000e+00  -3.0131042818149601e-04 8.6769912928090768e-06 -4.8000565099888889e-04  -5.9530901707593228e-04 -4.1561896138891301e-05 -1.8228464974884692e-03  -8.6987505732910488e-04 -1.3732871401915639e-04 -3.9995793915548333e-03  -1.1212406473603204e-03 -2.7353409390398721e-04 -6.9430960075381066e-03  -1.3489249839683686e-03 -4.4536466635799397e-04 -1.0583854149240783e-02  -1.5529677169033064e-03 -6.4858928791847756e-04 -1.4852157508993555e-02  -1.7335592638717356e-03 -8.7932056955291205e-04 -1.9678674745214245e-02  -1.8910337716318379e-03 -1.1338811610234060e-03 -2.4994876828388909e-02  -2.0258993795244781e-03 -1.4087603094758104e-03 -3.0733527703320059e-02  -2.1388760488262274e-03 -1.7006155137596353e-03 -3.6829266435393110e-02  -2.2309354966761111e-03 -2.0062928817938461e-03 -4.3219295863075886e-02  -2.3033403888688491e-03 -2.3228548152772750e-03 -4.9844181169796116e-02  -2.3576807129274220e-03 -2.6476105145785641e-03 -5.6648753726167574e-02  -2.3959057308366462e-03 -2.9781475586000169e-03 -6.3583109849330119e-02  -2.4203503566648157e-03 -3.3123639709886576e-03 -7.0603690091752186e-02  -2.4337551190272682e-03 -3.6485002926513951e-03 -7.7674422007480759e-02  -2.4392819952343370e-03 -3.9851698850735971e-03 -8.4767910723306542e-02  -2.4406043486870422e-03 -4.3213934822430838e-03 -9.1866718654330437e-02  0.0000000000000000e+00 0.0000000000000000e+00 0.0000000000000000e+00  -2.8128412483650623e-04 2.0286602526891074e-05 -4.5436958810242834e-04  -5.6464597526957551e-04 -2.7758728683486558e-05 -1.7802793403614921e-03  -8.3021146646283231e-04 -1.2334325484484378e-04 -3.9458998885761893e-03  -1.0733234425492964e-03 -2.6027644790640125e-04 -6.8811153864859692e-03  -1.2935841861262231e-03 -4.3319808009848452e-04 -1.0515223507958192e-02  -1.4910922378387568e-03 -6.3765602984363040e-04 -1.4778042303120211e-02  -1.6660431593128763e-03 -8.6966583088729608e-04 -1.9600033929229450e-02  -1.8187471997162638e-03 -1.1255045324659733e-03 -2.4912569109066581e-02  -1.9496719390322533e-03 -1.4016358690674873e-03 -3.0648346370898236e-02  -2.0594845983703453e-03 -1.6946984614072717e-03 -3.6741945241461800e-02  -2.1490935766340859e-03 -2.0015207338384719e-03 -4.3130502897381955e-02  -2.2196883281992495e-03 -2.3191465706347476e-03 -4.9754507454547958e-02  -2.2727761457376565e-03 -2.6448652049789654e-03 -5.6558699289609521e-02  -2.3102144736444272e-03 -2.9762427738826815e-03 -6.3493068547881490e-02  -2.3342377583738918e-03 -3.3111545922506658e-03 -7.0513933936029727e-02  -2.3474789828321495e-03 -3.6478176798234790e-03 -7.7585085847934679e-02  -2.3529836934925059e-03 -3.9848192987074604e-03 -8.4678978095341348e-02  -2.3542985153947090e-03 -4.3211212677422691e-03 -9.1778024509139924e-02  0.0000000000000000e+00 0.0000000000000000e+00 0.0000000000000000e+00  -2.5005909781261588e-04 3.1846849335484931e-05 -4.1960482497183381e-04  -5.2269669719856040e-04 -1.4795816771064509e-05 -1.7272459304530443e-03  -7.7985419688402662e-04 -1.1056424428678724e-04 -3.8819866567863610e-03  -1.0154463500288747e-03 -2.4830556833392109e-04 -6.8095471538619752e-03  -1.2291360804605358e-03 -4.2225823437466389e-04 -1.0437855366592235e-02  -1.4210140972033955e-03 -6.2783360914584342e-04 -1.4696121464711651e-02  -1.5912446192267947e-03 -8.6098725957470875e-04 -1.9514542240772530e-02  -1.7400954373518720e-03 -1.1179664391072607e-03 -2.4824358429412632e-02  -1.8679817016451273e-03 -1.3952164236608487e-03 -3.0558185311791001e-02  -1.9755076678083525e-03 -1.6893606526750516e-03 -3.6650528981695421e-02  -2.0635078784790361e-03 -1.9972123272500005e-03 -4.3038447684452322e-02  -2.1330870457444743e-03 -2.3157988405685813e-03 -4.9662338587183760e-02  -2.1856570858695881e-03 -2.6423913430935041e-03 -5.6466836220866200e-02  -2.2229698448773070e-03 -2.9745363549421419e-03 -6.3401808740654875e-02  -2.2471445001091364e-03 -3.3100882086364437e-03 -7.0423436311259177e-02  -2.2606895384517235e-03 -3.6472414684313825e-03 -7.7495354371795611e-02  -2.2665235311292490e-03 -3.9845653033943476e-03 -8.4589840992591897e-02  -2.2679827738336187e-03 -4.3209410796702322e-03 -9.1689156875204236e-02  0.0000000000000000e+00 0.0000000000000000e+00 0.0000000000000000e+00  -2.1298506484653947e-04 -4.9288760719492803e-05 -4.7534775753449676e-04  -4.0863261012411256e-04 -1.1196639365658798e-04 -1.8639688625883128e-03  -5.8810583679570565e-04 -2.1426315090885338e-04 -4.0927893239529308e-03  -7.5168817286488216e-04 -3.5349615690390628e-04 -7.0868859197126778e-03  -8.9939489056258264e-04 -5.2658748226038160e-04 -1.0774843451059312e-02  -1.0312949785999045e-03 -7.3004950386261632e-04 -1.5086303383801153e-02  -1.1475703525657352e-03 -9.6031425772610606e-04 -1.9951683777038143e-02  -1.2485192817472289e-03 -1.2138589349203592e-03 -2.5302377597263372e-02  -1.3345671521452726e-03 -1.4872721510396176e-03 -3.1071156038980901e-02  -1.4062836691041535e-03 -1.7772987450404352e-03 -3.7192719820049791e-02  -1.4644023472288052e-03 -2.0808768045563085e-03 -4.3604380378242220e-02  -1.5098398079102856e-03 -2.3951717721405323e-03 -5.0246860327712833e-02  -1.5437135222861709e-03 -2.7176092598908352e-03 -5.7065202596870652e-02  -1.5673571914189206e-03 -3.0459070468517803e-03 -6.4009775432083180e-02  -1.5823334037703988e-03 -3.3781063122677499e-03 -7.1037357941878307e-02  -1.5904440654989460e-03 -3.7126022356990269e-03 -7.8112289293284051e-02  -1.5937419464930674e-03 -4.0481780177781855e-03 -8.5207672186519465e-02  -1.5945357920486602e-03 -4.3840557963408687e-03 -9.2306668910408715e-02  0.0000000000000000e+00 0.0000000000000000e+00 0.0000000000000000e+00  -1.9223186693832206e-04 -3.4690203687067662e-05 -4.8805337399368765e-04  -3.8043894533333432e-04 -9.9746816021590906e-05 -1.8737622971590360e-03  -5.5049447835107664e-04 -2.0306689829090684e-04 -4.0926270721937351e-03  -7.0548925982050290e-04 -3.4333960184256365e-04 -7.0755598647405885e-03  -8.4552004993576190e-04 -5.1747344027898922e-04 -1.0752537706502164e-02  -9.7067091673380364e-04 -7.2197075636717142e-04 -1.5053671028081809e-02  -1.0811091723214416e-03 -9.5325468922563853e-04 -1.9909549126474777e-02  -1.1771031364741049e-03 -1.2077938286070298e-03 -2.5251633259207075e-02  -1.2590367149219964e-03 -1.4821674777082451e-03 -3.1012723493681390e-02  -1.3274279829424318e-03 -1.7731100336989881e-03 -3.7127532087620353e-02  -1.3829492072139739e-03 -2.0775479093088594e-03 -4.3533371880876158e-02  -1.4264464150768861e-03 -2.3926336908533389e-03 -5.0170958333776640e-02  -1.4589573673689726e-03 -2.7157790881396499e-03 -5.6985318097548372e-02  -1.4817271788571725e-03 -3.0446871211932793e-03 -6.3926792597025758e-02  -1.4962210970733503e-03 -3.3773835853018208e-03 -7.0952121630397810e-02  -1.5041343109471722e-03 -3.7122480255765227e-03 -7.8025589583733998e-02  -1.5074012965763353e-03 -4.0480486573843859e-03 -8.5120220527940646e-02  -1.5082233437595555e-03 -4.3840088264297319e-03 -9.2219064553102456e-02  0.0000000000000000e+00 0.0000000000000000e+00 0.0000000000000000e+00  -1.7746668889039307e-04 -2.5147150673642804e-05 -4.9268816889154205e-04  -3.5412610324157270e-04 -8.9612656472058173e-05 -1.8728091421850433e-03  -5.1444140073370786e-04 -1.9343859782140459e-04 -4.0822220264835861e-03  -6.6061965897277314e-04 -3.3448888363525316e-04 -7.0548674995611514e-03  -7.9280804674171400e-04 -5.0948530156271963e-04 -1.0721806871109282e-02  -9.1106681927712323e-04 -7.1486778915060998e-04 -1.5013559776478539e-02  -1.0155346459144760e-03 -9.4703345594180299e-04 -1.9860871062166760e-02  -1.1064454907484577e-03 -1.2024370668589179e-03 -2.5195260540005586e-02  -1.1841410882060500e-03 -1.4776475145586070e-03 -3.0949547864538053e-02  -1.2490887297591056e-03 -1.7693892199425688e-03 -3.7058446667009144e-02  -1.3019009799797256e-03 -2.0745780341659978e-03 -4.3459259778355540e-02  -1.3433551690783419e-03 -2.3903550999708496e-03 -5.0092682816680584e-02  -1.3744114246280993e-03 -2.7141197983916545e-03 -5.6903712314195450e-02  -1.3962284124256746e-03 -3.0435620828536424e-03 -6.3842648120345624e-02  -1.4101761047407961e-03 -3.3766942185754832e-03 -7.0866175494522926e-02  -1.4178449190447220e-03 -3.7118821536691296e-03 -7.7938509338146902e-02  -1.4210538139019398e-03 -4.0478804525374574e-03 -8.5032585403827840e-02  -1.4218891020788113e-03 -4.3839001285722341e-03 -9.2131335476426324e-02  0.0000000000000000e+00 0.0000000000000000e+00 0.0000000000000000e+00  -1.6482573578477318e-04 -1.8020262632919085e-05 -4.9000010582658804e-04  -3.2938712600879107e-04 -8.1102559899407664e-05 -1.8614444801377283e-03  -4.7970187897959410e-04 -1.8496422492686535e-04 -4.0611155618515381e-03  -6.1695609680704588e-04 -3.2653733124595147e-04 -7.0240720750537264e-03  -7.4119849198191581e-04 -5.0224289405903445e-04 -1.0681859337882448e-02  -8.5245939409781132e-04 -7.0839684925792800e-04 -1.4965206337432530e-02  -9.5085010534362439e-04 -9.4134699909416300e-04 -1.9804943776644369e-02  -1.0365712546129718e-03 -1.1975261196454849e-03 -2.5132621153064107e-02  -1.1099233538169003e-03 -1.4734902693035400e-03 -3.0881061198553016e-02  -1.1713239508396192e-03 -1.7659535877316344e-03 -3.6984965729573493e-02  -1.2213270955804447e-03 -2.0718218700861357e-03 -4.3381614614897708e-02  -1.2606427583243950e-03 -2.3882256457261708e-03 -5.0011669881825850e-02  -1.2901549010094150e-03 -2.7125529357932966e-03 -5.6820083154715116e-02  -1.3109373178636044e-03 -3.0424816705436836e-03 -6.3757096990506218e-02  -1.3242664601438496e-03 -3.3760117088112046e-03 -7.0779325868427209e-02  -1.3316303044395295e-03 -3.7114965162808951e-03 -7.7850899420173397e-02  -1.3347363915460341e-03 -4.0476770864350600e-03 -8.4944652028440773e-02  -1.3355583537738003e-03 -4.3837412304569712e-03 -9.2043385194868377e-02  0.0000000000000000e+00 0.0000000000000000e+00 0.0000000000000000e+00  -1.5232404677754984e-04 -1.2178198511664686e-05 -4.8074964833124870e-04  -3.0504846097083213e-04 -7.3776399643025670e-05 -1.8402397261361432e-03  -4.4536472579311692e-04 -1.7740424624976506e-04 -4.0294680279889233e-03  -5.7370898885636520e-04 -3.1932917591220194e-04 -6.9831437284074279e-03  -6.8999311898650930e-04 -4.9562539378192208e-04 -1.0632590341634916e-02  -7.9423155529437933e-04 -7.0245797709228173e-04 -1.4908482148619544e-02  -8.8651559169876490e-04 -9.3611200132195959e-04 -1.9741636173292304e-02  -9.6701519543828209e-04 -1.1929929007250303e-03 -2.5063589728429106e-02  -1.0359906967768420e-03 -1.4696422096982125e-03 -3.0807146937572815e-02  -1.0938103979705146e-03 -1.7627636078098100e-03 -3.6906982593265143e-02  -1.1409701612393216e-03 -2.0692532498066212e-03 -4.3300339845683537e-02  -1.1781128926862080e-03 -2.3862316974978611e-03 -4.9927833035220366e-02  -1.2060467062041990e-03 -2.7110763431106855e-03 -5.6734353900445282e-02  -1.2257608998633475e-03 -3.0414538469059980e-03 -6.3670071831814140e-02  -1.2384389983029515e-03 -3.3753524035120296e-03 -7.0691514061307081e-02  -1.2454678636872074e-03 -3.7111136183033398e-03 -7.7762708649913651e-02  -1.2484458806512025e-03 -4.0474644766342240e-03 -8.4856373899506066e-02  -1.2492359090838442e-03 -4.3835638124775931e-03 -9.1955173182807132e-02  0.0000000000000000e+00 0.0000000000000000e+00 0.0000000000000000e+00  -1.3897247516720849e-04 -6.8042412011225249e-06 -4.6476106374197573e-04  -2.8019526516104678e-04 -6.7177741964122978e-05 -1.8092178921330017e-03  -4.1066243977792551e-04 -1.7052938385659806e-04 -3.9873491798494073e-03  -5.3017099210207763e-04 -3.1273244577788035e-04 -6.9321065653747517e-03  -6.3854221498821568e-04 -4.8954315222747081e-04 -1.0573989174018970e-02  -7.3579291927688289e-04 -6.9698234383324851e-04 -1.4843360473385874e-02  -8.2200102700898602e-04 -9.3127280086323036e-04 -1.9670915511639395e-02  -8.9730785977480449e-04 -1.1887922098174203e-03 -2.4988132101415872e-02  -9.6193404377327028e-04 -1.4660676187535342e-03 -3.0727771589361373e-02  -1.0161985506485310e-03 -1.7597926367146249e-03 -3.6824465535330822e-02  -1.0605387286647193e-03 -2.0668543318403685e-03 -4.3215406243349040e-02  -1.0955299793975488e-03 -2.3843639100951134e-03 -4.9841146145587163e-02  -1.1219040747697028e-03 -2.7096887521743879e-03 -5.6646502075177935e-02  -1.1405653143464840e-03 -3.0404848326501307e-03 -6.3581554337930321e-02  -1.1526039162714048e-03 -3.3747291766771546e-03 -7.0602726280821468e-02  -1.1593059073453805e-03 -3.7107519540486395e-03 -7.7673927451597763e-02  -1.1621602893217931e-03 -4.0472658460237688e-03 -8.4767744174651813e-02  -1.1629144407326807e-03 -4.3833976386415535e-03 -9.1866695542247051e-02  0.0000000000000000e+00 0.0000000000000000e+00 0.0000000000000000e+00  -1.2392618162894434e-04 -9.7488223447268092e-07 -4.4075480724703827e-04  -2.5384150161833794e-04 -6.0686107471468277e-05 -1.7677254050411744e-03  -3.7461952959564091e-04 -1.6393299911047519e-04 -3.9345011233491061e-03  -4.8539190396293484e-04 -3.0645479824655930e-04 -6.8708259297198980e-03  -5.8594950492298330e-04 -4.8376628446205699e-04 -1.0505962259979868e-02  -6.7631626647936369e-04 -6.9177911212397547e-04 -1.4769766311412883e-02  -7.56554668