<?xml version="1.0"?>
<VTKFile type="UnstructuredGrid"  version="0.1"  >
<UnstructuredGrid>
<Piece  NumberOfPoints="760" NumberOfCells="3024">
<Points>
<DataArray  type="Float64"  NumberOfComponents="3"  format="ascii">0 0 0  0.05555555555555555 0 0  0.1111111111111111 0 0  0.1666666666666667 0 0  0.2222222222222222 0 0  0.2777777777777778 0 0  0.3333333333333333 0 0  0.3888888888888889 0 0  0.4444444444444444 0 0  0.5 0 0  0.5555555555555556 0 0  0.6111111111111112 0 0  0.6666666666666666 0 0  0.7222222222222222 0 0  0.7777777777777778 0 0  0.8333333333333334 0 0  0.8888888888888888 0 0  0.9444444444444444 0 0  1 0 0  0 0.01428571428571429 0  0.05555555555555555 0.01428571428571429 0  0.1111111111111111 0.01428571428571429 0  0.1666666666666667 0.01428571428571429 0  0.2222222222222222 0.01428571428571429 0  0.2777777777777778 0.01428571428571429 0  0.3333333333333333 0.01428571428571429 0  0.3888888888888889 0.01428571428571429 0  0.4444444444444444 0.01428571428571429 0  0.5 0.01428571428571429 0  0.5555555555555556 0.01428571428571429 0  0.6111111111111112 0.01428571428571429 0  0.6666666666666666 0.01428571428571429 0  0.7222222222222222 0.01428571428571429 0  0.7777777777777778 0.01428571428571429 0  0.8333333333333334 0.01428571428571429 0  0.8888888888888888 0.01428571428571429 0  0.9444444444444444 0.01428571428571429 0  1 0.01428571428571429 0  0 0.02857142857142857 0  0.05555555555555555 0.02857142857142857 0  0.1111111111111111 0.02857142857142857 0  0.1666666666666667 0.02857142857142857 0  0.2222222222222222 0.02857142857142857 0  0.2777777777777778 0.02857142857142857 0  0.3333333333333333 0.02857142857142857 0  0.3888888888888889 0.02857142857142857 0  0.4444444444444444 0.02857142857142857 0  0.5 0.02857142857142857 0  0.5555555555555556 0.02857142857142857 0  0.6111111111111112 0.02857142857142857 0  0.6666666666666666 0.02857142857142857 0  0.7222222222222222 0.02857142857142857 0  0.7777777777777778 0.02857142857142857 0  0.8333333333333334 0.02857142857142857 0  0.8888888888888888 0.02857142857142857 0  0.9444444444444444 0.02857142857142857 0  1 0.02857142857142857 0  0 0.04285714285714286 0  0.05555555555555555 0.04285714285714286 0  0.1111111111111111 0.04285714285714286 0  0.1666666666666667 0.04285714285714286 0  0.2222222222222222 0.04285714285714286 0  0.2777777777777778 0.04285714285714286 0  0.3333333333333333 0.04285714285714286 0  0.3888888888888889 0.04285714285714286 0  0.4444444444444444 0.04285714285714286 0  0.5 0.04285714285714286 0  0.5555555555555556 0.04285714285714286 0  0.6111111111111112 0.04285714285714286 0  0.6666666666666666 0.04285714285714286 0  0.7222222222222222 0.04285714285714286 0  0.7777777777777778 0.04285714285714286 0  0.8333333333333334 0.04285714285714286 0  0.8888888888888888 0.04285714285714286 0  0.9444444444444444 0.04285714285714286 0  1 0.04285714285714286 0  0 0.05714285714285715 0  0.05555555555555555 0.05714285714285715 0  0.1111111111111111 0.05714285714285715 0  0.1666666666666667 0.05714285714285715 0  0.2222222222222222 0.05714285714285715 0  0.2777777777777778 0.05714285714285715 0  0.3333333333333333 0.05714285714285715 0  0.3888888888888889 0.05714285714285715 0  0.4444444444444444 0.05714285714285715 0  0.5 0.05714285714285715 0  0.5555555555555556 0.05714285714285715 0  0.6111111111111112 0.05714285714285715 0  0.6666666666666666 0.05714285714285715 0  0.7222222222222222 0.05714285714285715 0  0.7777777777777778 0.05714285714285715 0  0.8333333333333334 0.05714285714285715 0  0.8888888888888888 0.05714285714285715 0  0.9444444444444444 0.05714285714285715 0  1 0.05714285714285715 0  0 0.07142857142857142 0  0.05555555555555555 0.07142857142857142 0  0.1111111111111111 0.07142857142857142 0  0.1666666666666667 0.07142857142857142 0  0.2222222222222222 0.07142857142857142 0  0.2777777777777778 0.07142857142857142 0  0.3333333333333333 0.07142857142857142 0  0.3888888888888889 0.07142857142857142 0  0.4444444444444444 0.07142857142857142 0  0.5 0.07142857142857142 0  0.5555555555555556 0.07142857142857142 0  0.6111111111111112 0.07142857142857142 0  0.6666666666666666 0.07142857142857142 0  0.7222222222222222 0.07142857142857142 0  0.7777777777777778 0.07142857142857142 0  0.8333333333333334 0.07142857142857142 0  0.8888888888888888 0.07142857142857142 0  0.9444444444444444 0.07142857142857142 0  1 0.07142857142857142 0  0 0.08571428571428573 0  0.05555555555555555 0.08571428571428573 0  0.1111111111111111 0.08571428571428573 0  0.1666666666666667 0.08571428571428573 0  0.2222222222222222 0.08571428571428573 0  0.2777777777777778 0.08571428571428573 0  0.3333333333333333 0.08571428571428573 0  0.3888888888888889 0.08571428571428573 0  0.4444444444444444 0.08571428571428573 0  0.5 0.08571428571428573 0  0.5555555555555556 0.08571428571428573 0  0.6111111111111112 0.08571428571428573 0  0.6666666666666666 0.08571428571428573 0  0.7222222222222222 0.08571428571428573 0  0.7777777777777778 0.08571428571428573 0  0.8333333333333334 0.08571428571428573 0  0.8888888888888888 0.08571428571428573 0  0.9444444444444444 0.08571428571428573 0  1 0.08571428571428573 0  0 0.1 0  0.05555555555555555 0.1 0  0.1111111111111111 0.1 0  0.1666666666666667 0.1 0  0.2222222222222222 0.1 0  0.2777777777777778 0.1 0  0.3333333333333333 0.1 0  0.3888888888888889 0.1 0  0.4444444444444444 0.1 0  0.5 0.1 0  0.5555555555555556 0.1 0  0.6111111111111112 0.1 0  0.6666666666666666 0.1 0  0.7222222222222222 0.1 0  0.7777777777777778 0.1 0  0.8333333333333334 0.1 0  0.8888888888888888 0.1 0  0.9444444444444444 0.1 0  1 0.1 0  0 0 0.01  0.05555555555555555 0 0.01  0.1111111111111111 0 0.01  0.1666666666666667 0 0.01  0.2222222222222222 0 0.01  0.2777777777777778 0 0.01  0.3333333333333333 0 0.01  0.3888888888888889 0 0.01  0.4444444444444444 0 0.01  0.5 0 0.01  0.5555555555555556 0 0.01  0.6111111111111112 0 0.01  0.6666666666666666 0 0.01  0.7222222222222222 0 0.01  0.7777777777777778 0 0.01  0.8333333333333334 0 0.01  0.8888888888888888 0 0.01  0.9444444444444444 0 0.01  1 0 0.01  0 0.01428571428571429 0.01  0.05555555555555555 0.01428571428571429 0.01  0.1111111111111111 0.01428571428571429 0.01  0.1666666666666667 0.01428571428571429 0.01  0.2222222222222222 0.01428571428571429 0.01  0.2777777777777778 0.01428571428571429 0.01  0.3333333333333333 0.01428571428571429 0.01  0.3888888888888889 0.01428571428571429 0.01  0.4444444444444444 0.01428571428571429 0.01  0.5 0.01428571428571429 0.01  0.5555555555555556 0.01428571428571429 0.01  0.6111111111111112 0.01428571428571429 0.01  0.6666666666666666 0.01428571428571429 0.01  0.7222222222222222 0.01428571428571429 0.01  0.7777777777777778 0.01428571428571429 0.01  0.8333333333333334 0.01428571428571429 0.01  0.8888888888888888 0.01428571428571429 0.01  0.9444444444444444 0.01428571428571429 0.01  1 0.01428571428571429 0.01  0 0.02857142857142857 0.01  0.05555555555555555 0.02857142857142857 0.01  0.1111111111111111 0.02857142857142857 0.01  0.1666666666666667 0.02857142857142857 0.01  0.2222222222222222 0.02857142857142857 0.01  0.2777777777777778 0.02857142857142857 0.01  0.3333333333333333 0.02857142857142857 0.01  0.3888888888888889 0.02857142857142857 0.01  0.4444444444444444 0.02857142857142857 0.01  0.5 0.02857142857142857 0.01  0.5555555555555556 0.02857142857142857 0.01  0.6111111111111112 0.02857142857142857 0.01  0.6666666666666666 0.02857142857142857 0.01  0.7222222222222222 0.02857142857142857 0.01  0.7777777777777778 0.02857142857142857 0.01  0.8333333333333334 0.02857142857142857 0.01  0.8888888888888888 0.02857142857142857 0.01  0.9444444444444444 0.02857142857142857 0.01  1 0.02857142857142857 0.01  0 0.04285714285714286 0.01  0.05555555555555555 0.04285714285714286 0.01  0.1111111111111111 0.04285714285714286 0.01  0.1666666666666667 0.04285714285714286 0.01  0.2222222222222222 0.04285714285714286 0.01  0.2777777777777778 0.04285714285714286 0.01  0.3333333333333333 0.04285714285714286 0.01  0.3888888888888889 0.04285714285714286 0.01  0.4444444444444444 0.04285714285714286 0.01  0.5 0.04285714285714286 0.01  0.5555555555555556 0.04285714285714286 0.01  0.6111111111111112 0.04285714285714286 0.01  0.6666666666666666 0.04285714285714286 0.01  0.7222222222222222 0.04285714285714286 0.01  0.7777777777777778 0.04285714285714286 0.01  0.8333333333333334 0.04285714285714286 0.01  0.8888888888888888 0.04285714285714286 0.01  0.9444444444444444 0.04285714285714286 0.01  1 0.04285714285714286 0.01  0 0.05714285714285715 0.01  0.05555555555555555 0.05714285714285715 0.01  0.1111111111111111 0.05714285714285715 0.01  0.1666666666666667 0.05714285714285715 0.01  0.2222222222222222 0.05714285714285715 0.01  0.2777777777777778 0.05714285714285715 0.01  0.3333333333333333 0.05714285714285715 0.01  0.3888888888888889 0.05714285714285715 0.01  0.4444444444444444 0.05714285714285715 0.01  0.5 0.05714285714285715 0.01  0.5555555555555556 0.05714285714285715 0.01  0.6111111111111112 0.05714285714285715 0.01  0.6666666666666666 0.05714285714285715 0.01  0.7222222222222222 0.05714285714285715 0.01  0.7777777777777778 0.05714285714285715 0.01  0.8333333333333334 0.05714285714285715 0.01  0.8888888888888888 0.05714285714285715 0.01  0.9444444444444444 0.05714285714285715 0.01  1 0.05714285714285715 0.01  0 0.07142857142857142 0.01  0.05555555555555555 0.07142857142857142 0.01  0.1111111111111111 0.07142857142857142 0.01  0.1666666666666667 0.07142857142857142 0.01  0.2222222222222222 0.07142857142857142 0.01  0.2777777777777778 0.07142857142857142 0.01  0.3333333333333333 0.07142857142857142 0.01  0.3888888888888889 0.07142857142857142 0.01  0.4444444444444444 0.07142857142857142 0.01  0.5 0.07142857142857142 0.01  0.5555555555555556 0.07142857142857142 0.01  0.6111111111111112 0.07142857142857142 0.01  0.6666666666666666 0.07142857142857142 0.01  0.7222222222222222 0.07142857142857142 0.01  0.7777777777777778 0.07142857142857142 0.01  0.8333333333333334 0.07142857142857142 0.01  0.8888888888888888 0.07142857142857142 0.01  
[...]
<PointData  Vectors="f_33"> 
<DataArray  type="Float64"  Name="f_33"  NumberOfComponents="3" format="ascii">0.0000000000000000e+00 0.0000000000000000e+00 0.0000000000000000e+00  1.8588651321363359e-03 1.1791583811613732e-04 2.6673992538864427e-03  3.4689438020916313e-03 -7.4949641519563657e-05 1.0221920860672810e-02  4.9378205435295858e-03 -3.8624595993320921e-04 2.2318958875100530e-02  6.2675844746462360e-03 -7.8422539559533377e-04 3.8525105403412238e-02  7.4603889802238700e-03 -1.2525274273948713e-03 5.8429877680323532e-02  8.5180686363518689e-03 -1.7803494951774523e-03 8.1631587882796480e-02  9.4433576571090940e-03 -2.3588670817328511e-03 1.0773676163097998e-01  1.0240078977229323e-02 -2.9801265486009997e-03 1.3636206096622552e-01  1.0913207178659247e-02 -3.6367003980126425e-03 1.6713709485467199e-01  1.1468936034930911e-02 -4.3216112046873065e-03 1.9970770257071152e-01  1.1914747835819604e-02 -5.0283543872160054e-03 2.3373955684098560e-01  1.2259475443087737e-02 -5.7509591981935613e-03 2.6892200465035920e-01  1.2513353625317981e-02 -6.4840655447088351e-03 3.0497209065820058e-01  1.2688059162227329e-02 -7.2230083702060442e-03 3.4163872067004314e-01  1.2796741189938263e-02 -7.9639072365912215e-03 3.7870692992154259e-01  1.2854052075103975e-02 -8.7037606798255999e-03 4.1600222853770019e-01  1.2876211689313834e-02 -9.4405375261672770e-03 4.5339504592837321e-01  1.2880958345312103e-02 -1.0173345837596832e-02 4.9080574684657108e-01  0.0000000000000000e+00 0.0000000000000000e+00 0.0000000000000000e+00  1.7729355182609843e-03 2.5948375681548800e-05 2.7458331870820183e-03  3.4195808461982922e-03 -1.5646278715694871e-04 1.0277349615680016e-02  4.9193758738527585e-03 -4.6000487850159408e-04 2.2319143394878546e-02  6.2779722346387413e-03 -8.5047989675517154e-04 3.8464301755246427e-02  7.4973751243403736e-03 -1.3114044355744222e-03 5.8309634736596470e-02  8.5794265063036355e-03 -1.8319971123973045e-03 8.1455893104375565e-02  9.5268696711340653e-03 -2.4034876242935242e-03 1.0751047303239389e-01  1.0343529037736839e-02 -3.0179837137641460e-03 1.3609034954147595e-01  1.1034381808736971e-02 -3.6681232991991673e-03 1.6682521938536968e-01  1.1605633237145967e-02 -4.3469982802663461e-03 1.9936090192191452e-01  1.2064790373316269e-02 -5.0481769317654275e-03 2.3336298354025745e-01  1.2420726802950335e-02 -5.7657642838634809e-03 2.6852067173119654e-01  1.2683735893242055e-02 -6.4944782509130331e-03 3.0455082142676737e-01  1.2865572387367527e-02 -7.2297332224473560e-03 3.4120209744933166e-01  1.2979483227396857e-02 -7.9677286652221607e-03 3.7825923935911249e-01  1.3040234196764642e-02 -8.7055422142121863e-03 4.1554739869659968e-01  1.3064178891161526e-02 -9.4412114307895704e-03 4.5293655428798435e-01  1.3069535189048199e-02 -1.0173690877261580e-02 4.9034640294840848e-01  0.0000000000000000e+00 0.0000000000000000e+00 0.0000000000000000e+00  1.7654709285965166e-03 -4.4273203257946018e-05 2.7766418012551528e-03  3.4269298609280042e-03 -2.3607675867156046e-04 1.0278237315780762e-02  4.9495378706355554e-03 -5.3694774449524233e-04 2.2266908667314796e-02  6.3309355147167391e-03 -9.2134876123931410e-04 3.8355601544562863e-02  7.5716293478761392e-03 -1.3751023047338569e-03 5.8146510853907867e-02  8.6730884612963750e-03 -1.8882605232952222e-03 8.1242383078455327e-02  9.6379602001750164e-03 -2.4523761919550973e-03 1.0725134424180059e-01  1.0470059483776013e-02 -3.0597121607492516e-03 1.3579060910103066e-01  1.1174391118165162e-02 -3.7030073113669751e-03 1.6648990637754546e-01  1.1757212043648803e-02 -4.3754379856700614e-03 1.9899498341432620e-01  1.2226101350081188e-02 -5.0706531087791554e-03 2.3297128789817662e-01  1.2590024246998359e-02 -5.7828387138222958e-03 2.6810783416322537e-01  1.2859385596032889e-02 -6.5067951033995633e-03 3.0412123244455763e-01  1.3046072050752852e-02 -7.2380201420468304e-03 3.4075985081018850e-01  1.3163482674294695e-02 -7.9727965787265414e-03 3.7780807788478699e-01  1.3226550866645068e-02 -8.7082835671445039e-03 4.1509065555682267e-01  1.3251801024527606e-02 -9.4425984320497987e-03 4.5247708020332678e-01  1.3257660770450663e-02 -1.0174667409830918e-02 4.8988641279344602e-01  0.0000000000000000e+00 0.0000000000000000e+00 0.0000000000000000e+00  1.7710072439333664e-03 -1.0480088655996891e-04 2.7676726478427010e-03  3.4472901795088388e-03 -3.1289845418846872e-04 1.0222823426729526e-02  4.9917735266589549e-03 -6.1510938463906894e-04 2.2157897195473394e-02  6.3949627905410689e-03 -9.9481711426006349e-04 3.8193758766151380e-02  7.6558132099028018e-03 -1.4417450078832855e-03 5.7935275204182242e-02  8.7755077649763775e-03 -1.9474144180200686e-03 8.0986193680141469e-02  9.7566453729179201e-03 -2.5039529151936087e-03 1.0695500128323866e-01  1.0603054848087417e-02 -3.1038745419214135e-03 1.3545899149189691e-01  1.1319784013504364e-02 -3.7400564170558099e-03 1.6612783320043184e-01  1.1913154567235906e-02 -4.4057748216486106e-03 1.9860713288116633e-01  1.2390830236161342e-02 -5.0947667479979541e-03 2.3256213743007398e-01  1.2761880559113797e-02 -5.8013036961581301e-03 2.6768160711940275e-01  1.3036834843203247e-02 -6.5202717926161179e-03 3.0368184606098092e-01  1.3227724878335307e-02 -7.2472554736599934e-03 3.4031086348788775e-01  1.3348115796228242e-02 -7.9786235840569701e-03 3.7735263535585112e-01  1.3413124310472849e-02 -8.7116191051275320e-03 4.1463143549322479e-01  1.3439454722337438e-02 -9.4444453852655687e-03 4.5201622851681794e-01  1.3445714296991181e-02 -1.0176120149086084e-02 4.8942540366580067e-01  0.0000000000000000e+00 0.0000000000000000e+00 0.0000000000000000e+00  1.7733742280605245e-03 -1.6377012878145510e-04 2.7220964421395977e-03  3.4686732183629677e-03 -3.8922727289239533e-04 1.0113799977137593e-02  5.0367112608457696e-03 -6.9432355729996025e-04 2.1992382052726824e-02  6.4621642613649707e-03 -1.0700698411881197e-03 3.7978132849404433e-02  7.7431658993419878e-03 -1.5103675241081211e-03 5.7674970100531651e-02  8.8809147788108007e-03 -2.0085016635415782e-03 8.0686301294419768e-02  9.8780720279092599e-03 -2.5573184696280359e-03 1.0662045660814964e-01  1.0738520583948787e-02 -3.1496449313368610e-03 1.3509458420399953e-01  1.1467367289927465e-02 -3.7785221237249442e-03 1.6573817592623444e-01  1.2071005906464118e-02 -4.4373373577944169e-03 1.9819661817871762e-01  1.2557188904035675e-02 -5.1199210979532821e-03 2.3213489050925123e-01  1.2935093145849204e-02 -5.8206335860942048e-03 2.6724143597394140e-01  1.3215375064838556e-02 -6.5344493148024397e-03 3.0323218968017646e-01  1.3410214293899922e-02 -7.2570417014589028e-03 3.3985473868604216e-01  1.3533345491172490e-02 -7.9848682766718668e-03 3.7689258304107126e-01  1.3600075699512710e-02 -8.7152582813551545e-03 4.1416946762596224e-01  1.3627300562092600e-02 -9.4465063309427683e-03 4.5155377009447201e-01  1.3633833554023344e-02 -1.0177815430251289e-02 4.8896319109368191e-01  0.0000000000000000e+00 0.0000000000000000e+00 0.0000000000000000e+00  1.7666342722707756e-03 -2.2808547966064928e-04 2.6382652117481072e-03  3.4852867173855019e-03 -4.6878937216040991e-04 9.9508432395042454e-03  5.0792808453657325e-03 -7.7594613001579166e-04 2.1770195858552416e-02  6.5280244593339254e-03 -1.1474385642371088e-03 3.7708375693894861e-02  7.8296905129473428e-03 -1.5809253238294914e-03 5.7365142939198824e-02  8.9858213017430678e-03 -2.0713414159355477e-03 8.0342232178637396e-02  9.9992458577723761e-03 -2.6122421684935948e-03 1.0624725823864148e-01  1.0873936466031159e-02 -3.1967743505739834e-03 1.3469697556899163e-01  1.1615070503835553e-02 -3.8181487842883187e-03 1.6532057030873948e-01  1.2229116354046617e-02 -4.4698675910457954e-03 1.9776312461701831e-01  1.2723914252513438e-02 -5.1458574326941672e-03 2.3168928190031762e-01  1.3108746034046104e-02 -5.8405696135875656e-03 2.6678710368778347e-01  1.3394392409605792e-02 -6.5490692331332465e-03 3.0277209242227870e-01  1.3593177881600233e-02 -7.2671210941303499e-03 3.3939134888087807e-01  1.3719004023174003e-02 -7.9912744444979276e-03 3.7642783270150343e-01  1.3787370132633628e-02 -8.7189483651002615e-03 4.1370469615509142e-01  1.3815377400466138e-02 -9.4485340572391593e-03 4.5108967165595726e-01  1.3822078803836870e-02 -1.0179489383402482e-02 4.8849976554370272e-01  0.0000000000000000e+00 0.0000000000000000e+00 0.0000000000000000e+00  1.7424193276018708e-03 -3.0371785719812558e-04 2.5082736933069527e-03  3.4874617098652584e-03 -5.5511271406377401e-04 9.7296265806174499e-03  5.1097321261161571e-03 -8.6167600191076627e-04 2.1489179631069780e-02  6.5832566918944740e-03 -1.2276656016189462e-03 3.7383076973368901e-02  7.9068756101904024e-03 -1.6537364719726550e-03 5.7004710163936954e-02  9.0826062452520600e-03 -2.1360639310270633e-03 7.9953104803422506e-02  1.0113465334374589e-02 -2.6687620207626788e-03 1.0583468544301920e-01  1.1003512896431991e-02 -3.2452461702743018e-03 1.3426558838540836e-01  1.1757989411339490e-02 -3.8588801985710700e-03 1.6487457218926244e-01  1.2383427754951156e-02 -4.5032763369652349e-03 1.9730633191727850e-01  1.2887744297297611e-02 -5.1724571650771066e-03 2.3122510549855382e-01  1.3280313356310223e-02 -5.8609664760988838e-03 2.6631850739085078e-01  1.3572026925771349e-02 -6.5639621288555655e-03 3.0230154218172856e-01  1.3775341071336279e-02 -7.2773029270758209e-03 3.3892075851735654e-01  1.3904310595188957e-02 -7.9976333340185703e-03 3.7595850877465520e-01  1.3974616262462007e-02 -8.7224672987708408e-03 4.1323728456165043e-01  1.4003574869567997e-02 -9.4502932425964675e-03 4.5062410977021355e-01  1.4010464328719613e-02 -1.0180877944769249e-02 4.8803529443572941e-01  0.0000000000000000e+00 0.0000000000000000e+00 0.0000000000000000e+00  1.6648902659181538e-03 -3.8590913746169847e-04 2.3283580163084433e-03  3.4350683622152304e-03 -6.4360928013094195e-04 9.4505301618489426e-03  5.0886669458104052e-03 -9.4702690481991464e-04 2.1152028167616663e-02  6.5908869089858369e-03 -1.3064467415374766e-03 3.7005618383318069e-02  7.9410047948059465e-03 -1.7248139469728677e-03 5.6597151066756911e-02  9.1411102493673888e-03 -2.1990813263756833e-03 7.9522263966803369e-02  1.0194192224610545e-02 -2.7237214168312927e-03 1.0538585908013860e-01  1.1104288130258811e-02 -3.2923380002646686e-03 1.3380328495015925e-01  1.1876632511955424e-02 -3.8984157194388329e-03 1.6440277225323971e-01  1.2517767655227793e-02 -4.5356631858525899e-03 1.9682855522179504e-01  1.3035634713985790e-02 -5.1981921538120143e-03 2.3074440153748663e-01  1.3439649293276177e-02 -5.8806347813206801e-03 2.6583741603402167e-01  1.3740762532698604e-02 -6.5782385392807730e-03 3.0182204276408475e-01  1.3951508785865164e-02 -7.2869535314442329e-03 3.3844421478075448e-01  1.4086041748969149e-02 -8.0035173873460128e-03 3.7548561264405000e-01  1.4160164251870557e-02 -8.7255413794051166e-03 4.1276800000862179e-01  1.4191384448078066e-02 -9.4515958924887133e-03 4.5015759470096800e-01  1.4199021643317352e-02 -1.0181811328859576e-02 4.8757000986671051e-01  0.0000000000000000e+00 0.0000000000000000e+00 0.0000000000000000e+00  8.5997201932312770e-04 4.7875992086951061e-05 2.5887119374557324e-03  1.6315792442504443e-03 -1.2757963113680179e-04 1.0149188421918568e-02  2.3320041163534242e-03 -3.9780861054711057e-04 2.2252166797353378e-02  2.9666358263362056e-03 -7.5146621666662963e-04 3.8464493707581413e-02  3.5365966271351862e-03 -1.1768663197538620e-03 5.8375495491268456e-02  4.0425758228789313e-03 -1.6647163497403408e-03 8.1583392413167560e-02  4.4857553149320406e-03 -2.2067383615290426e-03 1.0769463883024120e-01  4.8678796827338541e-03 -2.7951811731461332e-03 1.3632583715209570e-01  5.1912574023529863e-03 -3.4226792860889317e-03 1.6710653983995893e-01  5.4587797320025840e-03 -4.0822485438779237e-03 1.9968252859961302e-01  5.6739488822144706e-03 -4.7673339022907373e-03 2.3371941618392161e-01  5.8409060354282939e-03 -5.4718781889870321e-03 2.6890648707160381e-01  5.9644554265691884e-03 -6.1904003283661186e-03 3.0496072118102285e-01  6.0500834626072376e-03 -6.9180786667758006e-03 3.4163095773196028e-01  6.1039735220347942e-03 -7.6508378673174390e-03 3.7870216382833827e-01  6.1330212290944376e-03 -8.3854369064938188e-03 4.1599977921271342e-01  6.1448624549632633e-03 -9.1195393060182137e-03 4.5339415549644058e-01  6.1477505692393609e-03 -9.8518284557323720e-03 4.9080535458788721e-01  0.0000000000000000e+00 0.0000000000000000e+00 0.0000000000000000e+00  8.4171816810392236e-04 -9.8009111744902607e-06 2.6593196173190837e-03  1.6509225454616567e-03 -1.7436639201796252e-04 1.0204046684644998e-02  2.3763045018935555e-03 -4.4031013542699461e-04 2.2252456106367210e-02  3.0336957782098792e-03 -7.8977112542972659e-04 3.8403975261996293e-02  3.6241381991025151e-03 -1.2110054869152445e-03 5.8255552958155411e-02  4.1484396308984241e-03 -1.6947474771684796e-03 8.1407961667017706e-02  4.6078619229942734e-03 -2.2327612198572602e-03 1.0746856197994159e-01  5.0042092954348475e-03 -2.8173350877143421e-03 1.3605428245594184e-01  5.3398492789839243e-03 -3.4411423243054903e-03 1.6679476875827814e-01  5.6177426841533314e-03 -4.0972385055458938e-03 1.9933578523616693e-01  5.8414769627355831e-03 -4.7791098987716362e-03 2.3334285979914701e-01  6.0152968190905660e-03 -5.4807421900967147e-03 2.6850513852750652e-01  6.1441298333525700e-03 -6.1966984464364300e-03 3.0453941256116174e-01  6.2336066422380024e-03 -6.9222020918084789e-03 3.4119428105149169e-01  6.2900759547331224e-03 -7.6532235190543132e-03 3.7825441647154828e-01  6.3206171791660186e-03 -8.3865683236363699e-03 4.1554490173090286e-01  6.3330744156179968e-03 -9.1199464885569660e-03 4.5293563820679078e-01  6.3361708220330002e-03 -9.8519751782156131e-03 4.9034609752864372e-01  0.0000000000000000e+00 0.0000000000000000e+00 0.0000000000000000e+00  8.4754525766867872e-04 -4.8412429478580388e-05 2.6875378690837987e-03  1.6768637571545893e-03 -2.1611641769837391e-04 1.0201755374666454e-02  2.4254924957478464e-03 -4.8031544929188672e-04 2.2198702459384274e-02  3.1044791185896150e-03 -8.2647502150112219e-04 3.8294370604626399e-02  3.7145968402666975e-03 -1.2439521846162849e-03 5.8091789929402025e-02  4.2565671094125226e-03 -1.7238344052122620e-03 8.1193952959483645e-02  4.7316593795225402e-03 -2.2580296849954149e-03 1.0720902995167292e-01  5.1417154556150759e-03 -2.8388986887964221e-03 1.3575421648413483e-01  5.4891580848911532e-03 -3.4591640388217503e-03 1.6645919947602184e-01  5.7770207111868688e-03 -4.1119239023130177e-03 1.9896967419567041e-01  6.0089818073240098e-03 -4.7907058058476795e-03 2.3295103046035975e-01  6.1893964202882155e-03 -5.4895371132696940e-03 2.6809222092690482e-01  6.3233226446429919e-03 -6.2030233890179448e-03 3.0410979142381922e-01  6.4165425023451550e-03 -6.9264311911073186e-03 3.4075204357280969e-01  6.4755768741759394e-03 -7.6557741453456892e-03 3.7780329806946611e-01  6.5076946336540750e-03 -8.3879014566982223e-03 4.1508822761997588e-01  6.5209417485419781e-03 -9.1205719126596866e-03 4.5247625142062364e-01  6.5243378540673809e-03 -9.8523977791031298e-03 4.8988622813107380e-01  0.0000000000000000e+00 0.0000000000000000e+00 0.0000000000000000e+00  8.6051649630154725e-04 -8.0644671398622227e-05 2.6766660135281372e-03  1.7087338203706304e-03 -2.5505346500629821e-04 1.0144000442859303e-02  2.4796874590995392e-03 -5.1957720137948526e-04 2.2088066501914382e-02  3.1797331520051647e-03 -8.6332550833848271e-04 3.8131392487324139e-02  3.8090062994924705e-03 -1.2773442700730951e-03 5.7879682447529383e-02  4.3681281428557522e-03 -1.7534517952231836e-03 8.0937051641496394e-02  4.8583866528091636e-03 -2.2838368339824365e-03 1.0691209195374803e-01  5.2816681335866120e-03 -2.8609812704041863e-03 1.3542210235134583e-01  5.6404562882325527e-03 -3.4776747622620187e-03 1.6609671888997482e-01  5.9378627129185986e-03 -4.1270646972360794e-03 1.9858149877412662e-01  6.1776624892865830e-03 -4.8027224703563820e-03 2.3254163148853829e-01  6.3643267166642904e-03 -5.4987182442834135e-03 2.6766581518093852e-01  6.5030498116575783e-03 -6.2097006487795018e-03 3.0367028874962582e-01  6.5997710632476388e-03 -6.9309796892792000e-03 3.4030299401905562e-01  6.6611898103184318e-03 -7.6586121308716368e-03 3.7734783799518318e-01  6.6947717857664497e-03 -8.3894898483182767e-03 4.1462902475999797e-01  6.7087652970401123e-03 -9.1214228417319694e-03 4.5201544360603352e-01  6.7124272453309656e-03 -9.8530897655039005e-03 4.8942529569792376e-01  0.0000000000000000e+00 0.0000000000000000e+00 0.0000000000000000e+00  8.7254995737821883e-04 -1.1227025164686816e-04 2.6304981618342298e-03  1.7416654382378721e-03 -2.9378643587672689e-04 1.0033559459389515e-02  2.5353894921884943e-03 -5.5948577880640627e-04 2.1921176581392872e-02  3.2566218911959407e-03 -9.0120413065562701e-04 3.7914656123960888e-02  3.9049884795439352e-03 -1.3118613374169823e-03 5.7618466942435657e-02  4.4811391693364271e-03 -1.7841584534539804e-03 8.0636390575113959e-02  4.9864210154593417e-03 -2.3106455864697691e-03 1.0657689132565935e-01  5.4227788506173514e-03 -2.8839594996689743e-03 1.3505713792193363e-01  5.7927632100251633e-03 -3.4969706562652586e-03 1.6570659527410062e-01  6.0995669330386644e-03 -4.1428816003566465e-03 1.9817060230216071e-01  6.3470637530892169e-03 -4.8153105522353613e-03 2.3211408123720315e-01  6.5398424952630031e-03 -5.5083723259516043e-03 2.6722541242516862e-01  6.6832354652968818e-03 -6.2167600846500439e-03 3.0322046489959575e-01  6.7833408070219897e-03 -6.9358286474835301e-03 3.3984675734020220e-01  6.8470384836928589e-03 -7.6616791974952652e-03 3.7688771981041191e-01  6.8819961220974732e-03 -8.3912467560564290e-03 4.1416702675279804e-01  6.8966703396272297e-03 -9.1223946294125592e-03 4.5155298303792019e-01  6.9005379849458445e-03 -9.8539284967898710e-03 4.8896310831874290e-01  0.0000000000000000e+00 0.0000000000000000e+00 0.0000000000000000e+00  8.8032460918856443e-04 -1.4765167591632839e-04 2.5480197472205852e-03  1.7723075179121623e-03 -3.3486965339554400e-04 9.8704331999048250e-03  2.5898059750396724e-03 -6.0133758987642913e-04 2.1698348640889670e-02  3.3326511988699260e-03 -9.4083950061872742e-04 3.7644238816537043e-02  4.0003354865268742e-03 -1.3479904976565814e-03 5.7308039967886859e-02  4.5936789722242884e-03 -1.8163227993669765e-03 8.0291787237015008e-02  5.1141227058000005e-03 -2.3387484243843825e-03 1.0620322027932025e-01  5.5636786670472784e-03 -2.9080657919186032e-03 1.3465911454939791e-01  5.9449663506053489e-03 -3.5172308277567304e-03 1.6528862999061122e-01  6.2612596845355315e-03 -4.1595042028021601e-03 1.9773680142425054e-01  6.5165299251768311e-03 -4.8285531588098752e-03 2.3166821470012064e-01  6.7154820830497399e-03 -5.5185390793540019e-03 2.6677086820413143e-01  6.8635846552860006e-03 -6.2242015244605700e-03 3.0276019778555369e-01  6.9670929079213087e-03 -6.9409420814283305e-03 3.3938323530012288e-01  7.0330660478037316e-03 -7.6649085903172298e-03 3.7642286979190676e-01  7.0693759375922835e-03 -8.3930809801881553e-03 4.1370218232171652e-01  7.0846982082898684e-03 -9.1233765552776475e-03 4.5108883508499836e-01  7.0887202793040510e-03 -9.8547735073747540e-03 4.8849965228263414e-01  0.0000000000000000e+00 0.0000000000000000e+00 0.0000000000000000e+00  8.8130047529961077e-04 -1.9204613239471078e-04 2.4221741919647354e-03  1.7970330655944571e-03 -3.8175841578570860e-04 9.6508580072205696e-03  2.6391002738714517e-03 -6.4741528940831647e-04 2.1418028307823037e-02  3.4040683651181962e-03 -9.8386190999653705e-04 3.7319290474114301e-02  4.0915645206619465e-03 -1.3870008648291939e-03 5.6947798573017183e-02  4.7026086979135902e-03 -1.8509852317600960e-03 7.9902761987477172e-02  5.2387198027579792e-03 -2.3690117802026888e-03 1.0579068790570517e-01  5.7019642840375803e-03 -2.9340166382722573e-03 1.3422771889200974e-01  6.0950225931117961e-03 -3.5390349421211926e-03 1.6484258246143213e-01  6.4212435233669349e-03 -4.1773851933440322e-03 1.9727992505055089e-01  6.6846900714288785e-03 -4.8427855391026380e-03 2.3120392702208742e-01  6.8901776789640516e-03 -5.5294466990673105e-03 2.6630214014253822e-01  7.0433052082267715e-03 -6.2321578111017113e-03 3.0228950302918889e-01  7.1504791446461774e-03 -6.9463