<?xml version="1.0"?>
<VTKFile type="UnstructuredGrid"  version="0.1"  >
<UnstructuredGrid>
<Piece  NumberOfPoints="760" NumberOfCells="3024">
<Points>
<DataArray  type="Float64"  NumberOfComponents="3"  format="ascii">0 0 0  0.05555555555555555 0 0  0.1111111111111111 0 0  0.1666666666666667 0 0  0.2222222222222222 0 0  0.2777777777777778 0 0  0.3333333333333333 0 0  0.3888888888888889 0 0  0.4444444444444444 0 0  0.5 0 0  0.5555555555555556 0 0  0.6111111111111112 0 0  0.6666666666666666 0 0  0.7222222222222222 0 0  0.7777777777777778 0 0  0.8333333333333334 0 0  0.8888888888888888 0 0  0.9444444444444444 0 0  1 0 0  0 0.01428571428571429 0  0.05555555555555555 0.01428571428571429 0  0.1111111111111111 0.01428571428571429 0  0.1666666666666667 0.01428571428571429 0  0.2222222222222222 0.01428571428571429 0  0.2777777777777778 0.01428571428571429 0  0.3333333333333333 0.01428571428571429 0  0.3888888888888889 0.01428571428571429 0  0.4444444444444444 0.01428571428571429 0  0.5 0.01428571428571429 0  0.5555555555555556 0.01428571428571429 0  0.6111111111111112 0.01428571428571429 0  0.6666666666666666 0.01428571428571429 0  0.7222222222222222 0.01428571428571429 0  0.7777777777777778 0.01428571428571429 0  0.8333333333333334 0.01428571428571429 0  0.8888888888888888 0.01428571428571429 0  0.9444444444444444 0.01428571428571429 0  1 0.01428571428571429 0  0 0.02857142857142857 0  0.05555555555555555 0.02857142857142857 0  0.1111111111111111 0.02857142857142857 0  0.1666666666666667 0.02857142857142857 0  0.2222222222222222 0.02857142857142857 0  0.2777777777777778 0.02857142857142857 0  0.3333333333333333 0.02857142857142857 0  0.3888888888888889 0.02857142857142857 0  0.4444444444444444 0.02857142857142857 0  0.5 0.02857142857142857 0  0.5555555555555556 0.02857142857142857 0  0.6111111111111112 0.02857142857142857 0  0.6666666666666666 0.02857142857142857 0  0.7222222222222222 0.02857142857142857 0  0.7777777777777778 0.02857142857142857 0  0.8333333333333334 0.02857142857142857 0  0.8888888888888888 0.02857142857142857 0  0.9444444444444444 0.02857142857142857 0  1 0.02857142857142857 0  0 0.04285714285714286 0  0.05555555555555555 0.04285714285714286 0  0.1111111111111111 0.04285714285714286 0  0.1666666666666667 0.04285714285714286 0  0.2222222222222222 0.04285714285714286 0  0.2777777777777778 0.04285714285714286 0  0.3333333333333333 0.04285714285714286 0  0.3888888888888889 0.04285714285714286 0  0.4444444444444444 0.04285714285714286 0  0.5 0.04285714285714286 0  0.5555555555555556 0.04285714285714286 0  0.6111111111111112 0.04285714285714286 0  0.6666666666666666 0.04285714285714286 0  0.7222222222222222 0.04285714285714286 0  0.7777777777777778 0.04285714285714286 0  0.8333333333333334 0.04285714285714286 0  0.8888888888888888 0.04285714285714286 0  0.9444444444444444 0.04285714285714286 0  1 0.04285714285714286 0  0 0.05714285714285715 0  0.05555555555555555 0.05714285714285715 0  0.1111111111111111 0.05714285714285715 0  0.1666666666666667 0.05714285714285715 0  0.2222222222222222 0.05714285714285715 0  0.2777777777777778 0.05714285714285715 0  0.3333333333333333 0.05714285714285715 0  0.3888888888888889 0.05714285714285715 0  0.4444444444444444 0.05714285714285715 0  0.5 0.05714285714285715 0  0.5555555555555556 0.05714285714285715 0  0.6111111111111112 0.05714285714285715 0  0.6666666666666666 0.05714285714285715 0  0.7222222222222222 0.05714285714285715 0  0.7777777777777778 0.05714285714285715 0  0.8333333333333334 0.05714285714285715 0  0.8888888888888888 0.05714285714285715 0  0.9444444444444444 0.05714285714285715 0  1 0.05714285714285715 0  0 0.07142857142857142 0  0.05555555555555555 0.07142857142857142 0  0.1111111111111111 0.07142857142857142 0  0.1666666666666667 0.07142857142857142 0  0.2222222222222222 0.07142857142857142 0  0.2777777777777778 0.07142857142857142 0  0.3333333333333333 0.07142857142857142 0  0.3888888888888889 0.07142857142857142 0  0.4444444444444444 0.07142857142857142 0  0.5 0.07142857142857142 0  0.5555555555555556 0.07142857142857142 0  0.6111111111111112 0.07142857142857142 0  0.6666666666666666 0.07142857142857142 0  0.7222222222222222 0.07142857142857142 0  0.7777777777777778 0.07142857142857142 0  0.8333333333333334 0.07142857142857142 0  0.8888888888888888 0.07142857142857142 0  0.9444444444444444 0.07142857142857142 0  1 0.07142857142857142 0  0 0.08571428571428573 0  0.05555555555555555 0.08571428571428573 0  0.1111111111111111 0.08571428571428573 0  0.1666666666666667 0.08571428571428573 0  0.2222222222222222 0.08571428571428573 0  0.2777777777777778 0.08571428571428573 0  0.3333333333333333 0.08571428571428573 0  0.3888888888888889 0.08571428571428573 0  0.4444444444444444 0.08571428571428573 0  0.5 0.08571428571428573 0  0.5555555555555556 0.08571428571428573 0  0.6111111111111112 0.08571428571428573 0  0.6666666666666666 0.08571428571428573 0  0.7222222222222222 0.08571428571428573 0  0.7777777777777778 0.08571428571428573 0  0.8333333333333334 0.08571428571428573 0  0.8888888888888888 0.08571428571428573 0  0.9444444444444444 0.08571428571428573 0  1 0.08571428571428573 0  0 0.1 0  0.05555555555555555 0.1 0  0.1111111111111111 0.1 0  0.1666666666666667 0.1 0  0.2222222222222222 0.1 0  0.2777777777777778 0.1 0  0.3333333333333333 0.1 0  0.3888888888888889 0.1 0  0.4444444444444444 0.1 0  0.5 0.1 0  0.5555555555555556 0.1 0  0.6111111111111112 0.1 0  0.6666666666666666 0.1 0  0.7222222222222222 0.1 0  0.7777777777777778 0.1 0  0.8333333333333334 0.1 0  0.8888888888888888 0.1 0  0.9444444444444444 0.1 0  1 0.1 0  0 0 0.01  0.05555555555555555 0 0.01  0.1111111111111111 0 0.01  0.1666666666666667 0 0.01  0.2222222222222222 0 0.01  0.2777777777777778 0 0.01  0.3333333333333333 0 0.01  0.3888888888888889 0 0.01  0.4444444444444444 0 0.01  0.5 0 0.01  0.5555555555555556 0 0.01  0.6111111111111112 0 0.01  0.6666666666666666 0 0.01  0.7222222222222222 0 0.01  0.7777777777777778 0 0.01  0.8333333333333334 0 0.01  0.8888888888888888 0 0.01  0.9444444444444444 0 0.01  1 0 0.01  0 0.01428571428571429 0.01  0.05555555555555555 0.01428571428571429 0.01  0.1111111111111111 0.01428571428571429 0.01  0.1666666666666667 0.01428571428571429 0.01  0.2222222222222222 0.01428571428571429 0.01  0.2777777777777778 0.01428571428571429 0.01  0.3333333333333333 0.01428571428571429 0.01  0.3888888888888889 0.01428571428571429 0.01  0.4444444444444444 0.01428571428571429 0.01  0.5 0.01428571428571429 0.01  0.5555555555555556 0.01428571428571429 0.01  0.6111111111111112 0.01428571428571429 0.01  0.6666666666666666 0.01428571428571429 0.01  0.7222222222222222 0.01428571428571429 0.01  0.7777777777777778 0.01428571428571429 0.01  0.8333333333333334 0.01428571428571429 0.01  0.8888888888888888 0.01428571428571429 0.01  0.9444444444444444 0.01428571428571429 0.01  1 0.01428571428571429 0.01  0 0.02857142857142857 0.01  0.05555555555555555 0.02857142857142857 0.01  0.1111111111111111 0.02857142857142857 0.01  0.1666666666666667 0.02857142857142857 0.01  0.2222222222222222 0.02857142857142857 0.01  0.2777777777777778 0.02857142857142857 0.01  0.3333333333333333 0.02857142857142857 0.01  0.3888888888888889 0.02857142857142857 0.01  0.4444444444444444 0.02857142857142857 0.01  0.5 0.02857142857142857 0.01  0.5555555555555556 0.02857142857142857 0.01  0.6111111111111112 0.02857142857142857 0.01  0.6666666666666666 0.02857142857142857 0.01  0.7222222222222222 0.02857142857142857 0.01  0.7777777777777778 0.02857142857142857 0.01  0.8333333333333334 0.02857142857142857 0.01  0.8888888888888888 0.02857142857142857 0.01  0.9444444444444444 0.02857142857142857 0.01  1 0.02857142857142857 0.01  0 0.04285714285714286 0.01  0.05555555555555555 0.04285714285714286 0.01  0.1111111111111111 0.04285714285714286 0.01  0.1666666666666667 0.04285714285714286 0.01  0.2222222222222222 0.04285714285714286 0.01  0.2777777777777778 0.04285714285714286 0.01  0.3333333333333333 0.04285714285714286 0.01  0.3888888888888889 0.04285714285714286 0.01  0.4444444444444444 0.04285714285714286 0.01  0.5 0.04285714285714286 0.01  0.5555555555555556 0.04285714285714286 0.01  0.6111111111111112 0.04285714285714286 0.01  0.6666666666666666 0.04285714285714286 0.01  0.7222222222222222 0.04285714285714286 0.01  0.7777777777777778 0.04285714285714286 0.01  0.8333333333333334 0.04285714285714286 0.01  0.8888888888888888 0.04285714285714286 0.01  0.9444444444444444 0.04285714285714286 0.01  1 0.04285714285714286 0.01  0 0.05714285714285715 0.01  0.05555555555555555 0.05714285714285715 0.01  0.1111111111111111 0.05714285714285715 0.01  0.1666666666666667 0.05714285714285715 0.01  0.2222222222222222 0.05714285714285715 0.01  0.2777777777777778 0.05714285714285715 0.01  0.3333333333333333 0.05714285714285715 0.01  0.3888888888888889 0.05714285714285715 0.01  0.4444444444444444 0.05714285714285715 0.01  0.5 0.05714285714285715 0.01  0.5555555555555556 0.05714285714285715 0.01  0.6111111111111112 0.05714285714285715 0.01  0.6666666666666666 0.05714285714285715 0.01  0.7222222222222222 0.05714285714285715 0.01  0.7777777777777778 0.05714285714285715 0.01  0.8333333333333334 0.05714285714285715 0.01  0.8888888888888888 0.05714285714285715 0.01  0.9444444444444444 0.05714285714285715 0.01  1 0.05714285714285715 0.01  0 0.07142857142857142 0.01  0.05555555555555555 0.07142857142857142 0.01  0.1111111111111111 0.07142857142857142 0.01  0.1666666666666667 0.07142857142857142 0.01  0.2222222222222222 0.07142857142857142 0.01  0.2777777777777778 0.07142857142857142 0.01  0.3333333333333333 0.07142857142857142 0.01  0.3888888888888889 0.07142857142857142 0.01  0.4444444444444444 0.07142857142857142 0.01  0.5 0.07142857142857142 0.01  0.5555555555555556 0.07142857142857142 0.01  0.6111111111111112 0.07142857142857142 0.01  0.6666666666666666 0.07142857142857142 0.01  0.7222222222222222 0.07142857142857142 0.01  0.7777777777777778 0.07142857142857142 0.01  0.8333333333333334 0.07142857142857142 0.01  0.8888888888888888 0.07142857142857142 0.01  
[...]
<PointData  Vectors="f_33"> 
<DataArray  type="Float64"  Name="f_33"  NumberOfComponents="3" format="ascii">0.0000000000000000e+00 0.0000000000000000e+00 0.0000000000000000e+00  2.9860444420809029e-03 1.6064704251674079e-04 4.3452254876991366e-03  5.5690255063584881e-03 -2.2923611515640070e-04 1.6662113989511038e-02  7.9246343725800812e-03 -8.5767382632495170e-04 3.6385594471299493e-02  1.0056954662792461e-02 -1.6692265246622303e-03 6.2808754355390711e-02  1.1969610891854053e-02 -2.6331247370407285e-03 9.5262268642894249e-02  1.3665564615755474e-02 -3.7276820528342491e-03 1.3309118962090119e-01  1.5149201652523531e-02 -4.9345081801460923e-03 1.7565396945244599e-01  1.6426654862919839e-02 -6.2367284082297829e-03 2.2232559027731763e-01  1.7505905596465931e-02 -7.6184517603720223e-03 2.7250214632759084e-01  1.8396891162539467e-02 -9.0646813839670819e-03 3.2560619755098907e-01  1.9111615572832918e-02 -1.0561388825749312e-02 3.8109264435666362e-01  1.9664248859507218e-02 -1.2095652735593022e-02 4.3845498955891854e-01  2.0071209281680640e-02 -1.3655825083872176e-02 4.9723189777981569e-01  2.0351227544601308e-02 -1.5231711038916166e-02 5.5701398295039362e-01  2.0525395393501726e-02 -1.6814758296190616e-02 6.1745076646049069e-01  2.0617215556166801e-02 -1.8398254656120935e-02 6.7825776096007451e-01  2.0652706275740354e-02 -1.9977521341507744e-02 7.3922371610304816e-01  2.0660300722864698e-02 -2.1550255470753770e-02 8.0021880229482956e-01  0.0000000000000000e+00 0.0000000000000000e+00 0.0000000000000000e+00  2.8601018353713327e-03 1.3713737264384448e-05 4.4737431431046979e-03  5.5142288231461254e-03 -3.5930455181747790e-04 1.6753314565885559e-02  7.9313480838102187e-03 -9.7531510028909597e-04 3.6386684416377373e-02  1.0120822294430183e-02 -1.7748789597935224e-03 6.2710356297977582e-02  1.2085953017352205e-02 -2.7269982879217667e-03 9.5066906563615869e-02  1.3829716998711101e-02 -3.8100147692670186e-03 1.3280536519103392e-01  1.5356535516370931e-02 -5.0056242078510369e-03 1.7528560382838662e-01  1.6672573047324203e-02 -6.2970500606997068e-03 2.2188311515994463e-01  1.7785852847133576e-02 -7.6685059406347211e-03 2.7199413705356629e-01  1.8706377751972283e-02 -9.1051057809757915e-03 3.2504119764069672e-01  1.9446248765007088e-02 -1.0592937526264114e-02 3.8047905730853626e-01  2.0019769247326239e-02 -1.2119200869654624e-02 4.3780099224258373e-01  2.0443530632842977e-02 -1.3672372367240476e-02 4.9654535858455023e-01  2.0736479381141988e-02 -1.5242384050883257e-02 5.5630237826612527e-01  2.0919966585703702e-02 -1.6820811215770028e-02 6.1672109158079835e-01  2.1017791321216339e-02 -1.8401068233466159e-02 6.7751642770429754e-01  2.1056315886888544e-02 -1.9978586662630617e-02 7.3847640358186684e-01  2.1064917011037920e-02 -2.1550803086853681e-02 7.9947010094759352e-01  0.0000000000000000e+00 0.0000000000000000e+00 0.0000000000000000e+00  2.8607146826989207e-03 -9.8773967539886667e-05 4.5251800319346782e-03  5.5510074423735546e-03 -4.8709510229457082e-04 1.6755908517975371e-02  8.0164700710075153e-03 -1.0989420553736660e-03 3.6302620407570499e-02  1.0253313064108083e-02 -1.8887762099972342e-03 6.2534148641930881e-02  1.2262315453924701e-02 -2.8293749353775609e-03 9.4801884231011088e-02  1.4045848177277265e-02 -3.9004385310635516e-03 1.3245811231764185e-01  1.5608196896970130e-02 -5.0841885948621985e-03 1.7486389432845423e-01  1.6955539937289134e-02 -6.3641002013231900e-03 2.2139511417024246e-01  1.8095983146679557e-02 -7.7245501477607587e-03 2.7144806254354253e-01  1.9039660277497383e-02 -9.1507885091391475e-03 3.2444515106113536e-01  1.9798846163183399e-02 -1.0629033096944645e-02 3.7984091497017491e-01  2.0388060174637842e-02 -1.2146613966018280e-02 4.3712831660948426e-01  2.0824152805206161e-02 -1.3692140227269950e-02 4.9584531430516782e-01  2.1126373831224711e-02 -1.5255678192284584e-02 5.5558164735625126e-01  2.1316421852472598e-02 -1.6828937122995758e-02 6.1598578515397628e-01  2.1418480095624068e-02 -1.8405462801452867e-02 6.7677199034182289e-01  2.1459311676278202e-02 -1.9980816406159955e-02 7.3772749462345821e-01  2.1468773842366215e-02 -2.1552377575031010e-02 7.9872034200832520e-01  0.0000000000000000e+00 0.0000000000000000e+00 0.0000000000000000e+00  2.8818708185800986e-03 -1.9647404332833826e-04 4.5118478090826206e-03  5.6085625061565638e-03 -6.1126174804239050e-04 1.6666818184284612e-02  8.1209195289381701e-03 -1.2254036422077773e-03 3.6126070205839883e-02  1.0403502476031532e-02 -2.0076830552156612e-03 6.2271375085459962e-02  1.2454542207216484e-02 -2.9372417626091873e-03 9.4458491106162334e-02  1.4275948590974511e-02 -3.9961823487594571e-03 1.3204133812802549e-01  1.5871949539101555e-02 -5.1676638424097985e-03 1.7438156643295571e-01  1.7248775456122276e-02 -6.4355701581959267e-03 2.2085518880020560e-01  1.8414639963471216e-02 -7.7845026797109954e-03 2.7085839921524046e-01  1.9379829064866027e-02 -9.1998736140537583e-03 3.2381338060338172e-01  2.0156811961181693e-02 -1.0668043517744797e-02 3.7917434193185418e-01  2.0760344719809181e-02 -1.2176480912560612e-02 4.3643383248458650e-01  2.1207557956309620e-02 -1.3713933923279914e-02 4.9512931271903482e-01  2.1518026250320246e-02 -1.5270609069736223e-02 5.5484993818570238e-01  2.1713818330466265e-02 -1.6838355037496238e-02 6.1524350681779783e-01  2.1819526773550778e-02 -1.8410853444902925e-02 6.7602351949465167e-01  2.1862327225131106e-02 -1.9983805618937048e-02 7.3697634155508163e-01  2.1872496489480846e-02 -2.1554733804739462e-02 7.9796892014914789e-01  0.0000000000000000e+00 0.0000000000000000e+00 0.0000000000000000e+00  2.8976117764331856e-03 -2.9258686229504961e-04 4.4388580274856860e-03  5.6676154743216158e-03 -7.3556133367391047e-04 1.6490384938460757e-02  8.2296639445945639e-03 -1.3544254778195641e-03 3.5857444696293234e-02  1.0558767443832121e-02 -2.1302615634969627e-03 6.1920958786387703e-02  1.2651838848436171e-02 -3.0490174681731042e-03 9.4035137402935676e-02  1.4510827411010070e-02 -4.0956789704944610e-03 1.3155334868692609e-01  1.6140083795064580e-02 -5.2545781237396498e-03 1.7383698805007919e-01  1.7545955902155099e-02 -6.5101089256284946e-03 2.2026183218982337e-01  1.8736791171921813e-02 -7.8471399075163567e-03 2.7022378739736830e-01  1.9723039770828472e-02 -9.2512642089165945e-03 3.2314467886955750e-01  2.0517371970030136e-02 -1.0708994719594985e-02 3.7847828084516477e-01  2.1134785418875746e-02 -1.2207944583655558e-02 4.3571662665083055e-01  2.1592695219400018e-02 -1.3737005929770472e-02 4.9439657642060830e-01  2.1911005143657073e-02 -1.5286530278527142e-02 5.5410659875588986e-01  2.2112159602361056e-02 -1.6848510809548540e-02 6.1449371709230804e-01  2.2221171794345719e-02 -1.8416769495339713e-02 6.7527057130463708e-01  2.2265647793771309e-02 -1.9987156165718008e-02 7.3622257016939197e-01  2.2276322693646999e-02 -2.1557495088864582e-02 7.9721553622244623e-01  0.0000000000000000e+00 0.0000000000000000e+00 0.0000000000000000e+00  2.8985678544551515e-03 -3.9834784992179951e-04 4.3035143172401071e-03  5.7189741184067860e-03 -8.6607221222390551e-04 1.6226054148723686e-02  8.3346519368120656e-03 -1.4882217670255360e-03 3.5496456897575961e-02  1.0711951995904244e-02 -2.2570514207212997e-03 6.1482319899146202e-02  1.2847887262509806e-02 -3.1646279237488844e-03 9.3531074469823880e-02  1.4744987534725754e-02 -4.1986320826090176e-03 1.3099336236912329e-01  1.6407898546498208e-02 -5.3445538388829997e-03 1.7322941435548631e-01  1.7843142744267584e-02 -6.5873090274783394e-03 2.1961436644938595e-01  1.9059220016738980e-02 -7.9120434408057484e-03 2.6954362764428935e-01  2.0066748817697679e-02 -9.3045380503027787e-03 3.2243852824486924e-01  2.0878598872753690e-02 -1.0751463306228184e-02 3.7775229565606278e-01  2.1510005568330895e-02 -1.2240581578886542e-02 4.3497634244555833e-01  2.1978663848039110e-02 -1.3760933501928942e-02 4.9364682468463317e-01  2.2304801822715613e-02 -1.5303020381808535e-02 5.5335141956135503e-01  2.2511235279017924e-02 -1.6858985698207211e-02 6.1373627089522631e-01  2.2623401244852639e-02 -1.8422798322033584e-02 6.7451305384708438e-01  2.2669361470656183e-02 -1.9990464978533930e-02 7.3546612607163642e-01  2.2680365540867522e-02 -2.1560231508142461e-02 7.9646017637698863e-01  0.0000000000000000e+00 0.0000000000000000e+00 0.0000000000000000e+00  2.8714498032358939e-03 -5.2351312893810550e-04 4.0929063066690082e-03  5.7471786700478006e-03 -1.0085544343294932e-03 1.5866720785259289e-02  8.4202500874758258e-03 -1.6295743174145358e-03 3.5039546550253577e-02  1.0848162154694196e-02 -2.3892724011184115e-03 6.0953124290770537e-02  1.3029046113965041e-02 -3.2845993003658858e-03 9.2944505010778569e-02  1.4966227256710696e-02 -4.3052600845179785e-03 1.3035991541163436e-01  1.6664678251550460e-02 -5.4376573514750906e-03 1.7255764780496788e-01  1.8131093065485642e-02 -6.6671461101843561e-03 2.1891183191441801e-01  1.9374111773001974e-02 -7.9791228514719485e-03 2.6881718083331158e-01  2.0404504550001219e-02 -9.3595494920749537e-03 3.2169439492191171e-01  2.1235321602946153e-02 -1.0795254398913556e-02 3.7699604171339429e-01  2.1882015713235146e-02 -1.2274152338590725e-02 4.3421280615586944e-01  2.2362540522975451e-02 -1.3785436829667890e-02 4.9288003397458641e-01  2.2697426851495693e-02 -1.5319764116681255e-02 5.5258450358904865e-01  2.2909839637231873e-02 -1.6869434588677235e-02 6.1297137022468529e-01  2.3025622341295814e-02 -1.8428573289546238e-02 6.7375123341122278e-01  2.3073312711080790e-02 -1.9993345352572609e-02 7.3470729746784946e-01  2.3084662384845966e-02 -2.1562508703278686e-02 7.9570311513974645e-01  0.0000000000000000e+00 0.0000000000000000e+00 0.0000000000000000e+00  2.7585225732888958e-03 -6.6036226855094814e-04 3.8008270726612556e-03  5.6873733111572526e-03 -1.1555599166595926e-03 1.5412801638382890e-02  8.4227456283458325e-03 -1.7712077284300467e-03 3.4490918485069751e-02  1.0907599387929026e-02 -2.5199426843967136e-03 6.0338716963817061e-02  1.3140793779376920e-02 -3.4024609228694193e-03 9.2280953778894809e-02  1.5125789199762091e-02 -4.4097369079302120e-03 1.2965833396752929e-01  1.6867533249731857e-02 -5.5287597534166436e-03 1.7182666958193663e-01  1.8372711500915250e-02 -6.7451935194975630e-03 2.1815880743186392e-01  1.9649991778688192e-02 -8.0446337958966045e-03 2.6804860102633504e-01  2.0710206346197163e-02 -9.4132019259391807e-03 3.2091600036302625e-01  2.1566502395599887e-02 -1.0837874093874498e-02 3.7621280727725614e-01  2.2234466917074348e-02 -1.2306711664240924e-02 4.3342887687781717e-01  2.2732227585690018e-02 -1.3809056860053546e-02 4.9209864211466159e-01  2.3080531464176844e-02 -1.5335717430589153e-02 5.5180787893584593e-01  2.3302804553661936e-02 -1.6879148341384799e-02 6.1220064850324862e-01  2.3425200836171927e-02 -1.8433636095632800e-02 6.7298636486879759e-01  2.3476695849374160e-02 -1.9995483461794254e-02 7.3394692006126017e-01  2.3489276955214348e-02 -2.1564042144268412e-02 7.9494473128951038e-01  0.0000000000000000e+00 0.0000000000000000e+00 0.0000000000000000e+00  1.3582988254220408e-03 4.5942206380733814e-05 4.2190316291560457e-03  2.5739448980374013e-03 -3.1551170432649034e-04 1.6545503685296697e-02  3.6765572020568244e-03 -8.7697808073827343e-04 3.6278510944835911e-02  4.6754508771890248e-03 -1.6162426729212527e-03 6.2711571676707559e-02  5.5725509435034992e-03 -2.5101667145132011e-03 9.5175065488631305e-02  6.3689474422692089e-03 -3.5395268137077157e-03 1.3301389888920850e-01  7.0664942788354916e-03 -4.6868238040593336e-03 1.7558640955738058e-01  7.6679354467466708e-03 -5.9355131533728621e-03 2.2226748383879291e-01  8.1769052552474446e-03 -7.2698052254160745e-03 2.7245312535565880e-01  8.5979563810175148e-03 -8.6746925438779092e-03 3.2556580182499811e-01  8.9366035354353762e-03 -1.0136064785073841e-02 3.8106031760091641e-01  9.1993673294247791e-03 -1.1640860132485296e-02 4.3843007539300222e-01  9.3938120835955260e-03 -1.3177233778139058e-02 4.9721363613809555e-01  9.5285758703465718e-03 -1.4734736079102941e-02 5.5700150712641250e-01  9.6133937890459913e-03 -1.6304497525532136e-02 6.1744310064172858e-01  9.6591223921057758e-03 -1.7879416032030786e-02 6.7825381662460704e-01  9.6777845778317894e-03 -1.9454315787410293e-02 7.3922228000384904e-01  9.6823471874030002e-03 -2.1026201158534517e-02 8.0021816948654889e-01  0.0000000000000000e+00 0.0000000000000000e+00 0.0000000000000000e+00  1.3423516891387691e-03 -4.4928267937628824e-05 4.3344630543455222e-03  2.6306954652956234e-03 -3.8896785109010816e-04 1.6635351096006279e-02  3.7851489077067070e-03 -9.4366998836094046e-04 3.6279376734992201e-02  4.8313396614040457e-03 -1.6763375429737365e-03 6.2613282216149327e-02  5.7709844075667441e-03 -2.5637168777296027e-03 9.4979876826430762e-02  6.6053700251305280e-03 -3.5866228655759783e-03 1.3272822804104367e-01  7.3365012744999883e-03 -4.7276228246457656e-03 1.7521815065333443e-01  7.9672482567277290e-03 -5.9702348668010585e-03 2.2182506265904720e-01  8.5013788144407774e-03 -7.2987304935325428e-03 2.7194511977795643e-01  8.9436054207432253e-03 -8.6981648021757785e-03 3.2500076169991576e-01  9.2996379505519509e-03 -1.0154492473612109e-02 3.8044665479036466e-01  9.5762322743945787e-03 -1.1654719102344542e-02 4.3777597649856143e-01  9.7812309795970928e-03 -1.3187069293434552e-02 4.9652698039809640e-01  9.9235954495784269e-03 -1.4741164272943528e-02 5.5628978282980512e-01  1.0013429729952934e-02 -1.6308206437650644e-02 6.1671331622365511e-01  1.0062000959655462e-02 -1.7881167256360776e-02 6.7751239939087682e-01  1.0081796991418146e-02 -1.9454944816289912e-02 7.3847492429767503e-01  1.0086712554152505e-02 -2.1026427515929029e-02 7.9946960714105897e-01  0.0000000000000000e+00 0.0000000000000000e+00 0.0000000000000000e+00  1.3644386347207019e-03 -1.0595189954395559e-04 4.3809718740533566e-03  2.6976996508711586e-03 -4.5513137623859253e-04 1.6632143549566540e-02  3.9012167696242488e-03 -1.0071686485509635e-03 3.6192262979837700e-02  4.9928214825189308e-03 -1.7346192824477312e-03 6.2435082409138067e-02  5.9737121967142386e-03 -2.6160353215274415e-03 9.4713350396630674e-02  6.8450393365052957e-03 -3.6328080313214228e-03 1.3237975467815055e-01  7.6088411694598462e-03 -4.7677384820906978e-03 1.7479542952313259e-01  8.2680783494321480e-03 -6.0044614642538749e-03 2.2133622821392143e-01  8.8266462356494640e-03 -7.3273276449211354e-03 2.7139837397783539e-01  9.2894222740146620e-03 -8.7214601155553191e-03 3.2440419426276523e-01  9.6623210245308337e-03 -1.0172879290075019e-02 3.7980813075320213e-01  9.9523447927189201e-03 -1.1668657102698389e-02 4.3710304605799610e-01  1.0167626139645487e-02 -1.3197085773960393e-02 4.9582679435591220e-01  1.0317461418397764e-02 -1.4747855138492610e-02 5.5556900749752436e-01  1.0412334765822776e-02 -1.6312236353423399e-02 6.1597804502550768e-01  1.0463933014451131e-02 -1.7883270493469501e-02 6.7676805768790849e-01  1.0485195656815039e-02 -1.9455934603417473e-02 7.3772615197728808e-01  1.0490639812480414e-02 -2.1027100328483487e-02 7.9872004295997234e-01  0.0000000000000000e+00 0.0000000000000000e+00 0.0000000000000000e+00  1.3975332277354668e-03 -1.5756569610328537e-04 4.3638268405885167e-03  2.7739962198906590e-03 -5.1758843676766970e-04 1.6538610090895790e-02  4.0251504710285511e-03 -1.0702626143283356e-03 3.6012488902950439e-02  5.1613056404066380e-03 -1.7938748758057940e-03 6.2169937626039111e-02  6.1826041026185833e-03 -2.6697364945280607e-03 9.4368071468629314e-02  7.0900399698541304e-03 -3.6804368860455456e-03 1.3196141023539554e-01  7.8857032538107129e-03 -4.8092354638466983e-03 1.7431177542555670e-01  8.5726565707066986e-03 -6.0399641031907971e-03 2.2079518898008466e-01  9.1549322549644967e-03 -7.3570820593965918e-03 2.7080779154831258e-01  9.6375818030153392e-03 -8.7457919301365313e-03 3.2377168595601952e-01  1.0026733625626125e-02 -1.0192184872707066e-02 3.7914098781646671e-01  1.0329645803781047e-02 -1.1683401782727707e-02 4.3640814539292472e-01  1.0554750350230558e-02 -1.3207804244239630e-02 4.9511051309951820e-01  1.0711688164448094e-02 -1.4755152055224369e-02 5.5483713687320069e-01  1.0811333674581482e-02 -1.6316785820552990e-02 6.1523570252074744e-01  1.0865805154402284e-02 -1.7885815368130786e-02 6.7601959750188123e-01  1.0888491615335137e-02 -1.9457300988495255e-02 7.3697506461503193e-01  1.0894424544307002e-02 -2.1028216838162556e-02 7.9796874468723922e-01  0.0000000000000000e+00 0.0000000000000000e+00 0.0000000000000000e+00  1.4288499469485275e-03 -2.0912396370011116e-04 4.2891641292871424e-03  2.8518597157345615e-03 -5.8062496272336833e-04 1.6359230925944150e-02  4.1514419779626558e-03 -1.1352339449401125e-03 3.5741043932696948e-02  5.3323644401456509e-03 -1.8555500756614494e-03 6.1817188639398224e-02  6.3939716751562816e-03 -2.7259359724811582e-03 9.3942767095849256e-02  7.3373191085553732e-03 -3.7304276026611668e-03 1.3147175619325094e-01  8.1646146173340230e-03 -4.8528751827051171e-03 1.7376576990357823e-01  8.8790455063473446e-03 -6.0773631657906795e-03 2.2020061822968442e-01  9.4847906401422429e-03 -7.3884824827052734e-03 2.7017216327283888e-01  9.9870806203092351e-03 -8.7715256227819706e-03 3.2310215252652286e-01  1.0392261057595654e-02 -1.0212660066794966e-02 3.7844426648984092e-01  1.0707848549136806e-02 -1.1699099489024666e-02 4.3569043595083468e-01  1.0942577118575573e-02 -1.3219278055464674e-02 4.9437741301567628e-01  1.1106434787783514e-02 -1.4763028599367067e-02 5.5409355449484243e-01  1.1210689741338029e-02 -1.6321764093699592e-02 6.1448576939935073e-01  1.1267899752553739e-02 -1.7888664508769744e-02 6.7526658245004967e-01  1.1291912369127315e-02 -1.9458876806065100e-02 7.3622128373464168e-01  1.1298240918808534e-02 -2.1029581978967066e-02 7.9721540054065765e-01  0.0000000000000000e+00 0.0000000000000000e+00 0.0000000000000000e+00  1.4532727427958203e-03 -2.6772549745881331e-04 4.1553227243708631e-03  2.9260581654856777e-03 -6.4841578644231704e-04 1.6093990269854079e-02  4.2757317822422983e-03 -1.2042045573130483e-03 3.5378434848174337e-02  5.5021186799956009e-03 -1.9208363720154362e-03 6.1376954486982369e-02  6.6043967164807638e-03 -2.7854305693339018e-03 9.3437262711723673e-02  7.5839195174865013e-03 -3.7833832311702639e-03 1.3091048998387392e-01  8.4430695480421300e-03 -4.8991366236613276e-03 1.7315706997667707e-01  9.1851724758536153e-03 -6.1170394240886005e-03 2.1955217227915305e-01  9.8145570303006351e-03 -7.4218224919403849e-03 2.6949116242215065e-01  1.0336632615484408e-02 -8.7988737699312512e-03 3.2239529273809225e-01  1.0757960173402350e-02 -1.0234441407760130e-02 3.7771769596608462e-01  1.1086312287603194e-02 -1.1715815786081685e-02 4.3494968087050206e-01  1.1330722212366960e-02 -1.3231507518567814e-02 4.9362729406999384e-01  1.1501522251147931e-02 -1.4771426505470295e-02 5.5333809948628765e-01  1.1610372041220148e-02 -1.6327062586821737e-02 6.1372812492993012e-01  1.1670272727663446e-02 -1.7891669485344281e-02 6.7450892853479449e-01  1.1695549736205586e-02 -1.9460481960215235e-02 7.3546475292840630e-01  1.1702185127940277e-02 -2.1030967281360342e-02 7.9645998954052832e-01  0.0000000000000000e+00 0.0000000000000000e+00 0.0000000000000000e+00  1.4669619539919416e-03 -3.4197399768242368e-04 3.9507858789856725e-03  2.9909298517902289e-03 -7.2660731536595621e-04 1.5736721457223712e-02  4.3919740891129148e-03 -1.2809096398866794e-03 3.4922103372995617e-02  5.6646483406918519e-03 -1.9924025006734991e-03 6.0847828841623625e-02  6.8083928322370448e-03 -2.8502983409248632e-03 9.2850557424242003e-02  7.8249083617781441e-03 -3.8410075458068867e-03 1.3027681428532334e-01  8.7167251083913062e-03 -4.9494385206746028e-03 1.7248502545638986e-01  9.4872859901663654e-03 -6.1601657319632231e-03 2.1884932975207855e-01  1.0141056370675682e-02 -7.4580504812170731e-03 2.6876438844417333e-01  1.0683614213414587e-02 -8.8285764288178539e-03 3.2165082133646622e-01  1.1121726300260981e-02 -1.0258076249654382e-02 3.7696110076796735e-01  1.1463411780723878e-02 -1.1733922359236121e-02 4.3418580808389529e-01  1.1717993624077843e-02 -1.3244707849141597e-02 4.9286018001814469e-01  1.1896138792944107e-02 -1.4780