<?xml version="1.0"?>
<VTKFile type="UnstructuredGrid"  version="0.1"  >
<UnstructuredGrid>
<Piece  NumberOfPoints="760" NumberOfCells="3024">
<Points>
<DataArray  type="Float64"  NumberOfComponents="3"  format="ascii">0 0 0  0.05555555555555555 0 0  0.1111111111111111 0 0  0.1666666666666667 0 0  0.2222222222222222 0 0  0.2777777777777778 0 0  0.3333333333333333 0 0  0.3888888888888889 0 0  0.4444444444444444 0 0  0.5 0 0  0.5555555555555556 0 0  0.6111111111111112 0 0  0.6666666666666666 0 0  0.7222222222222222 0 0  0.7777777777777778 0 0  0.8333333333333334 0 0  0.8888888888888888 0 0  0.9444444444444444 0 0  1 0 0  0 0.01428571428571429 0  0.05555555555555555 0.01428571428571429 0  0.1111111111111111 0.01428571428571429 0  0.1666666666666667 0.01428571428571429 0  0.2222222222222222 0.01428571428571429 0  0.2777777777777778 0.01428571428571429 0  0.3333333333333333 0.01428571428571429 0  0.3888888888888889 0.01428571428571429 0  0.4444444444444444 0.01428571428571429 0  0.5 0.01428571428571429 0  0.5555555555555556 0.01428571428571429 0  0.6111111111111112 0.01428571428571429 0  0.6666666666666666 0.01428571428571429 0  0.7222222222222222 0.01428571428571429 0  0.7777777777777778 0.01428571428571429 0  0.8333333333333334 0.01428571428571429 0  0.8888888888888888 0.01428571428571429 0  0.9444444444444444 0.01428571428571429 0  1 0.01428571428571429 0  0 0.02857142857142857 0  0.05555555555555555 0.02857142857142857 0  0.1111111111111111 0.02857142857142857 0  0.1666666666666667 0.02857142857142857 0  0.2222222222222222 0.02857142857142857 0  0.2777777777777778 0.02857142857142857 0  0.3333333333333333 0.02857142857142857 0  0.3888888888888889 0.02857142857142857 0  0.4444444444444444 0.02857142857142857 0  0.5 0.02857142857142857 0  0.5555555555555556 0.02857142857142857 0  0.6111111111111112 0.02857142857142857 0  0.6666666666666666 0.02857142857142857 0  0.7222222222222222 0.02857142857142857 0  0.7777777777777778 0.02857142857142857 0  0.8333333333333334 0.02857142857142857 0  0.8888888888888888 0.02857142857142857 0  0.9444444444444444 0.02857142857142857 0  1 0.02857142857142857 0  0 0.04285714285714286 0  0.05555555555555555 0.04285714285714286 0  0.1111111111111111 0.04285714285714286 0  0.1666666666666667 0.04285714285714286 0  0.2222222222222222 0.04285714285714286 0  0.2777777777777778 0.04285714285714286 0  0.3333333333333333 0.04285714285714286 0  0.3888888888888889 0.04285714285714286 0  0.4444444444444444 0.04285714285714286 0  0.5 0.04285714285714286 0  0.5555555555555556 0.04285714285714286 0  0.6111111111111112 0.04285714285714286 0  0.6666666666666666 0.04285714285714286 0  0.7222222222222222 0.04285714285714286 0  0.7777777777777778 0.04285714285714286 0  0.8333333333333334 0.04285714285714286 0  0.8888888888888888 0.04285714285714286 0  0.9444444444444444 0.04285714285714286 0  1 0.04285714285714286 0  0 0.05714285714285715 0  0.05555555555555555 0.05714285714285715 0  0.1111111111111111 0.05714285714285715 0  0.1666666666666667 0.05714285714285715 0  0.2222222222222222 0.05714285714285715 0  0.2777777777777778 0.05714285714285715 0  0.3333333333333333 0.05714285714285715 0  0.3888888888888889 0.05714285714285715 0  0.4444444444444444 0.05714285714285715 0  0.5 0.05714285714285715 0  0.5555555555555556 0.05714285714285715 0  0.6111111111111112 0.05714285714285715 0  0.6666666666666666 0.05714285714285715 0  0.7222222222222222 0.05714285714285715 0  0.7777777777777778 0.05714285714285715 0  0.8333333333333334 0.05714285714285715 0  0.8888888888888888 0.05714285714285715 0  0.9444444444444444 0.05714285714285715 0  1 0.05714285714285715 0  0 0.07142857142857142 0  0.05555555555555555 0.07142857142857142 0  0.1111111111111111 0.07142857142857142 0  0.1666666666666667 0.07142857142857142 0  0.2222222222222222 0.07142857142857142 0  0.2777777777777778 0.07142857142857142 0  0.3333333333333333 0.07142857142857142 0  0.3888888888888889 0.07142857142857142 0  0.4444444444444444 0.07142857142857142 0  0.5 0.07142857142857142 0  0.5555555555555556 0.07142857142857142 0  0.6111111111111112 0.07142857142857142 0  0.6666666666666666 0.07142857142857142 0  0.7222222222222222 0.07142857142857142 0  0.7777777777777778 0.07142857142857142 0  0.8333333333333334 0.07142857142857142 0  0.8888888888888888 0.07142857142857142 0  0.9444444444444444 0.07142857142857142 0  1 0.07142857142857142 0  0 0.08571428571428573 0  0.05555555555555555 0.08571428571428573 0  0.1111111111111111 0.08571428571428573 0  0.1666666666666667 0.08571428571428573 0  0.2222222222222222 0.08571428571428573 0  0.2777777777777778 0.08571428571428573 0  0.3333333333333333 0.08571428571428573 0  0.3888888888888889 0.08571428571428573 0  0.4444444444444444 0.08571428571428573 0  0.5 0.08571428571428573 0  0.5555555555555556 0.08571428571428573 0  0.6111111111111112 0.08571428571428573 0  0.6666666666666666 0.08571428571428573 0  0.7222222222222222 0.08571428571428573 0  0.7777777777777778 0.08571428571428573 0  0.8333333333333334 0.08571428571428573 0  0.8888888888888888 0.08571428571428573 0  0.9444444444444444 0.08571428571428573 0  1 0.08571428571428573 0  0 0.1 0  0.05555555555555555 0.1 0  0.1111111111111111 0.1 0  0.1666666666666667 0.1 0  0.2222222222222222 0.1 0  0.2777777777777778 0.1 0  0.3333333333333333 0.1 0  0.3888888888888889 0.1 0  0.4444444444444444 0.1 0  0.5 0.1 0  0.5555555555555556 0.1 0  0.6111111111111112 0.1 0  0.6666666666666666 0.1 0  0.7222222222222222 0.1 0  0.7777777777777778 0.1 0  0.8333333333333334 0.1 0  0.8888888888888888 0.1 0  0.9444444444444444 0.1 0  1 0.1 0  0 0 0.01  0.05555555555555555 0 0.01  0.1111111111111111 0 0.01  0.1666666666666667 0 0.01  0.2222222222222222 0 0.01  0.2777777777777778 0 0.01  0.3333333333333333 0 0.01  0.3888888888888889 0 0.01  0.4444444444444444 0 0.01  0.5 0 0.01  0.5555555555555556 0 0.01  0.6111111111111112 0 0.01  0.6666666666666666 0 0.01  0.7222222222222222 0 0.01  0.7777777777777778 0 0.01  0.8333333333333334 0 0.01  0.8888888888888888 0 0.01  0.9444444444444444 0 0.01  1 0 0.01  0 0.01428571428571429 0.01  0.05555555555555555 0.01428571428571429 0.01  0.1111111111111111 0.01428571428571429 0.01  0.1666666666666667 0.01428571428571429 0.01  0.2222222222222222 0.01428571428571429 0.01  0.2777777777777778 0.01428571428571429 0.01  0.3333333333333333 0.01428571428571429 0.01  0.3888888888888889 0.01428571428571429 0.01  0.4444444444444444 0.01428571428571429 0.01  0.5 0.01428571428571429 0.01  0.5555555555555556 0.01428571428571429 0.01  0.6111111111111112 0.01428571428571429 0.01  0.6666666666666666 0.01428571428571429 0.01  0.7222222222222222 0.01428571428571429 0.01  0.7777777777777778 0.01428571428571429 0.01  0.8333333333333334 0.01428571428571429 0.01  0.8888888888888888 0.01428571428571429 0.01  0.9444444444444444 0.01428571428571429 0.01  1 0.01428571428571429 0.01  0 0.02857142857142857 0.01  0.05555555555555555 0.02857142857142857 0.01  0.1111111111111111 0.02857142857142857 0.01  0.1666666666666667 0.02857142857142857 0.01  0.2222222222222222 0.02857142857142857 0.01  0.2777777777777778 0.02857142857142857 0.01  0.3333333333333333 0.02857142857142857 0.01  0.3888888888888889 0.02857142857142857 0.01  0.4444444444444444 0.02857142857142857 0.01  0.5 0.02857142857142857 0.01  0.5555555555555556 0.02857142857142857 0.01  0.6111111111111112 0.02857142857142857 0.01  0.6666666666666666 0.02857142857142857 0.01  0.7222222222222222 0.02857142857142857 0.01  0.7777777777777778 0.02857142857142857 0.01  0.8333333333333334 0.02857142857142857 0.01  0.8888888888888888 0.02857142857142857 0.01  0.9444444444444444 0.02857142857142857 0.01  1 0.02857142857142857 0.01  0 0.04285714285714286 0.01  0.05555555555555555 0.04285714285714286 0.01  0.1111111111111111 0.04285714285714286 0.01  0.1666666666666667 0.04285714285714286 0.01  0.2222222222222222 0.04285714285714286 0.01  0.2777777777777778 0.04285714285714286 0.01  0.3333333333333333 0.04285714285714286 0.01  0.3888888888888889 0.04285714285714286 0.01  0.4444444444444444 0.04285714285714286 0.01  0.5 0.04285714285714286 0.01  0.5555555555555556 0.04285714285714286 0.01  0.6111111111111112 0.04285714285714286 0.01  0.6666666666666666 0.04285714285714286 0.01  0.7222222222222222 0.04285714285714286 0.01  0.7777777777777778 0.04285714285714286 0.01  0.8333333333333334 0.04285714285714286 0.01  0.8888888888888888 0.04285714285714286 0.01  0.9444444444444444 0.04285714285714286 0.01  1 0.04285714285714286 0.01  0 0.05714285714285715 0.01  0.05555555555555555 0.05714285714285715 0.01  0.1111111111111111 0.05714285714285715 0.01  0.1666666666666667 0.05714285714285715 0.01  0.2222222222222222 0.05714285714285715 0.01  0.2777777777777778 0.05714285714285715 0.01  0.3333333333333333 0.05714285714285715 0.01  0.3888888888888889 0.05714285714285715 0.01  0.4444444444444444 0.05714285714285715 0.01  0.5 0.05714285714285715 0.01  0.5555555555555556 0.05714285714285715 0.01  0.6111111111111112 0.05714285714285715 0.01  0.6666666666666666 0.05714285714285715 0.01  0.7222222222222222 0.05714285714285715 0.01  0.7777777777777778 0.05714285714285715 0.01  0.8333333333333334 0.05714285714285715 0.01  0.8888888888888888 0.05714285714285715 0.01  0.9444444444444444 0.05714285714285715 0.01  1 0.05714285714285715 0.01  0 0.07142857142857142 0.01  0.05555555555555555 0.07142857142857142 0.01  0.1111111111111111 0.07142857142857142 0.01  0.1666666666666667 0.07142857142857142 0.01  0.2222222222222222 0.07142857142857142 0.01  0.2777777777777778 0.07142857142857142 0.01  0.3333333333333333 0.07142857142857142 0.01  0.3888888888888889 0.07142857142857142 0.01  0.4444444444444444 0.07142857142857142 0.01  0.5 0.07142857142857142 0.01  0.5555555555555556 0.07142857142857142 0.01  0.6111111111111112 0.07142857142857142 0.01  0.6666666666666666 0.07142857142857142 0.01  0.7222222222222222 0.07142857142857142 0.01  0.7777777777777778 0.07142857142857142 0.01  0.8333333333333334 0.07142857142857142 0.01  0.8888888888888888 0.07142857142857142 0.01  
[...]
<PointData  Vectors="f_33"> 
<DataArray  type="Float64"  Name="f_33"  NumberOfComponents="3" format="ascii">0.0000000000000000e+00 0.0000000000000000e+00 0.0000000000000000e+00  -3.5056463855065939e-03 -1.8215121208173076e-04 -5.1180017918825245e-03  -6.5341750105346180e-03 2.9261821839316008e-04 -1.9615282207749683e-02  -9.2926240742254099e-03 1.0570596206458480e-03 -4.2817016837239909e-02  -1.1786124707923125e-02 2.0449487972525023e-03 -7.3882254453453020e-02  -1.4019284432193553e-02 3.2190406895382419e-03 -1.1201506310832635e-01  -1.5996029873629990e-02 4.5528211265905491e-03 -1.5643756181334836e-01  -1.7722072341732554e-02 6.0237136830075663e-03 -2.0638914286465973e-01  -1.9205264986340582e-02 7.6109959455980336e-03 -2.6113047805009187e-01  -2.0455684728915628e-02 9.2951841414171607e-03 -3.1994914019128456e-01  -2.1485712651068724e-02 1.1057935712920124e-02 -3.8216600813953899e-01  -2.2310113382598744e-02 1.2882141456930988e-02 -4.4714214027856369e-01  -2.2946099668519369e-02 1.4752089944316114e-02 -5.1428594920164616e-01  -2.3413378729003804e-02 1.6653660875707257e-02 -5.8306057254534016e-01  -2.3734182314349941e-02 1.8574531380065634e-02 -6.5299136844359951e-01  -2.3933285520500173e-02 2.0504390696632287e-02 -7.2367348607600324e-01  -2.4038035354853191e-02 2.2435162117659290e-02 -7.9477948211563421e-01  -2.4078449887177972e-02 2.4361217955106054e-02 -8.6606704983846583e-01  -2.4087085528106095e-02 2.6279767995605784e-02 -9.3738777196341172e-01  0.0000000000000000e+00 0.0000000000000000e+00 0.0000000000000000e+00  -3.3604652330415435e-03 -9.9566763766129119e-06 -5.2691449145502549e-03  -6.4752575120751712e-03 4.4483046956066049e-04 -1.9722334692685035e-02  -9.3084772759846109e-03 1.1945337993540957e-03 -4.2817894761558874e-02  -1.1871361133880175e-02 2.1682233963321042e-03 -7.3766051144802669e-02  -1.4168115426112666e-02 3.3283864284625294e-03 -1.1178489272670597e-01  -1.6202684110547552e-02 4.6485467223400072e-03 -1.5610122051248285e-01  -1.7980826838826354e-02 6.1062337397746027e-03 -2.0595608873638210e-01  -1.9510446144575484e-02 7.6808433687112288e-03 -2.6061075317350751e-01  -2.0801685972810804e-02 9.3530153077582435e-03 -3.1935293129838649e-01  -2.1867027559760447e-02 1.1104535074042389e-02 -3.8150343370779582e-01  -2.2721377521602519e-02 1.2918425348755123e-02 -4.4642311838613852e-01  -2.3382137346771900e-02 1.4779109334373201e-02 -5.1352009286796874e-01  -2.3869252876706919e-02 1.6672603053610995e-02 -5.8225709305137285e-01  -2.4205246459006808e-02 1.8586720549272261e-02 -6.5215897926797139e-01  -2.4415235850117657e-02 2.0511287275107280e-02 -7.2282030299964239e-01  -2.4526954237660499e-02 2.2438360638459762e-02 -7.9391291079407467e-01  -2.4570861575189857e-02 2.4362428299743992e-02 -8.6519362294182756e-01  -2.4580646695950243e-02 2.6280390534105625e-02 -9.3651275332517714e-01  0.0000000000000000e+00 0.0000000000000000e+00 0.0000000000000000e+00  -3.3638326403683211e-03 1.2191178499018987e-04 -5.3297646477046736e-03  -6.5236907179856566e-03 5.9454493500372930e-04 -1.9725349740865674e-02  -9.4160869161910021e-03 1.3392274142839816e-03 -4.2718904366580254e-02  -1.2036754435426469e-02 2.3013538821889065e-03 -7.3558716514807526e-02  -1.4386914178392714e-02 3.4478668519234085e-03 -1.1147326116666374e-01  -1.6469800302301732e-02 4.7538964424702476e-03 -1.5569316613835066e-01  -1.8291022586963118e-02 6.1975964095903578e-03 -2.0546087351525716e-01  -1.9858513739432648e-02 7.7586621885273876e-03 -2.6003808023266600e-01  -2.1182532505640131e-02 9.4179265229356723e-03 -3.1871254074683181e-01  -2.2275735156428868e-02 1.1157333429317256e-02 -3.8080489870537176e-01  -2.3153256662895250e-02 1.2960053843376992e-02 -4.4567571440746157e-01  -2.3832778624621870e-02 1.4810656981370022e-02 -5.1273269244944941e-01  -2.4334578988258502e-02 1.6695304852118464e-02 -5.8143806835528666e-01  -2.4681564819708769e-02 1.8601957291251251e-02 -6.5131610596360079e-01  -2.4899290414581596e-02 2.0520583521064530e-02 -7.2196066240562595e-01  -2.5015968078594353e-02 2.2443380832807062e-02 -7.9304278579808840e-01  -2.5062556302896607e-02 2.4364974763908448e-02 -8.6431837000203082e-01  -2.5073334665876450e-02 2.6282188917706659e-02 -9.3563652434895994e-01  0.0000000000000000e+00 0.0000000000000000e+00 0.0000000000000000e+00  -3.3912293366699870e-03 2.3658314311319445e-04 -5.3142577467253640e-03  -6.5964424494836665e-03 7.4018711650851389e-04 -1.9620672299006405e-02  -9.5463002299527068e-03 1.4874317231117528e-03 -4.2511388204918260e-02  -1.2222813798124671e-02 2.4405350155212065e-03 -7.3249932424682584e-02  -1.4624202428939271e-02 3.5739413910687986e-03 -1.1106991872669905e-01  -1.6753162872353289e-02 4.8656178989717790e-03 -1.5520388913628716e-01  -1.8615247760625266e-02 6.2948277786804823e-03 -2.0489496206616709e-01  -2.0218465641725841e-02 7.8417514767370258e-03 -2.5940496401629426e-01  -2.1573219953069427e-02 9.4874874158259685e-03 -3.1802150931285239e-01  -2.2692366906280022e-02 1.1214169036804058e-02 -3.8006494348838660e-01  -2.3591293313014433e-02 1.3005130974338029e-02 -4.4489541304700397e-01  -2.4287984071981860e-02 1.4845098218698742e-02 -5.1192010787884745e-01  -2.4803072427427096e-02 1.6720386506939394e-02 -5.8060065229999946e-01  -2.5159873471310649e-02 1.8619108501312227e-02 -6.5046060322734378e-01  -2.5384402344402368e-02 2.0531383607436393e-02 -7.2109301489828659e-01  -2.5505377456211512e-02 2.2449554181662182e-02 -7.9216803527466317e-01  -2.5554266670763586e-02 2.4368395898687036e-02 -8.6344054616406785e-01  -2.5565866049449399e-02 2.6284885501941437e-02 -9.3475839132991889e-01  0.0000000000000000e+00 0.0000000000000000e+00 0.0000000000000000e+00  -3.4122165573024226e-03 3.4958299657223785e-04 -5.2286276621289728e-03  -6.6709356250972260e-03 8.8617821159464453e-04 -1.9413401744849214e-02  -9.6815541839765044e-03 1.6388200517683269e-03 -4.2195821732615137e-02  -1.2414827815628559e-02 2.5841876929071504e-03 -7.2838424466254326e-02  -1.4867431452643590e-02 3.7047458116775877e-03 -1.1057298951699082e-01  -1.7042115976063511e-02 4.9818650239679104e-03 -1.5463139337317772e-01  -1.8944589882934893e-02 6.3961958924409470e-03 -2.0425643337054458e-01  -2.0583014990826414e-02 7.9285233857261991e-03 -2.5870963313149936e-01  -2.1967970503154684e-02 9.5602620004613340e-03 -3.1727824089813894e-01  -2.3112526962534630e-02 1.1273756992331768e-02 -3.7928215299144441e-01  -2.4032331195815982e-02 1.3052518193015450e-02 -4.4408097734666480e-01  -2.4745677324076232e-02 1.4881433762491215e-02 -5.1108127298680761e-01  -2.5273559066707089e-02 1.6746979118809194e-02 -5.7974393933839530e-01  -2.5639704597864035e-02 1.8637425391183644e-02 -6.4959171352372369e-01  -2.5870596126933924e-02 2.0543048047699724e-02 -7.2021673546848808e-01  -2.5995470750606268e-02 2.2456339655953020e-02 -7.9128814663856595e-01  -2.6046325550647207e-02 2.4372235515819844e-02 -8.6255972070256282e-01  -2.6058515764521280e-02 2.6288049741872196e-02 -9.3387801030191253e-01  0.0000000000000000e+00 0.0000000000000000e+00 0.0000000000000000e+00  -3.4158403011071950e-03 4.7413561240367778e-04 -5.0696961767016250e-03  -6.7364268426588049e-03 1.0396723196980152e-03 -1.9102879020721150e-02  -9.8124518862528608e-03 1.7959953047378308e-03 -4.1771864686576683e-02  -1.2604461476081822e-02 2.7329410365176249e-03 -7.2323509129678679e-02  -1.5109258911864544e-02 3.8401855111419485e-03 -1.0998159283522504e-01  -1.7330287718809706e-02 5.1022810985377771e-03 -1.5397476079967207e-01  -1.9273615249367475e-02 6.5012482288284573e-03 -2.0354441399352904e-01  -2.0947623914691689e-02 8.0184906061142487e-03 -2.5795129399127720e-01  -2.2363090986425090e-02 9.6357510293771046e-03 -3.1648203501653160e-01  -2.3533306730053428e-02 1.1335594943894470e-02 -3.7845592347752965e-01  -2.4474176749333450e-02 1.3101713699118306e-02 -4.4323189963698056e-01  -2.5204300614961053e-02 1.4919164117137736e-02 -5.1021577325019574e-01  -2.5745027855643365e-02 1.6774586568512457e-02 -5.7886760368212542e-01  -2.6120494818602510e-02 1.8656416145850018e-02 -6.4870919395807547e-01  -2.6357646446634228e-02 2.0555090937043542e-02 -7.1933165594938420e-01  -2.6486242709562405e-02 2.2463260975672063e-02 -7.9040301326391371e-01  -2.6538839544177177e-02 2.4376030313415866e-02 -8.6167583047698415e-01  -2.6551416282742893e-02 2.6291188315751914e-02 -9.3299536451541265e-01  0.0000000000000000e+00 0.0000000000000000e+00 0.0000000000000000e+00  -3.3865312210390880e-03 6.2173402549313189e-04 -4.8222634005809463e-03  -6.7748021993197351e-03 1.2074499741058673e-03 -1.8680738371705034e-02  -9.9206877468127983e-03 1.9622296328604921e-03 -4.1235331420176935e-02  -1.2774296725386561e-02 2.8882255116840587e-03 -7.1702449224884390e-02  -1.5333757514718070e-02 3.9808722628227261e-03 -1.0929362735316037e-01  -1.7603458488053617e-02 5.2271139930758232e-03 -1.5323228569921898e-01  -1.9589862455126079e-02 6.6100526349002937e-03 -2.0275751349273541e-01  -2.1301568297982517e-02 8.1116137765220170e-03 -2.5712883684691157e-01  -2.2749536844748119e-02 9.7138376376664053e-03 -3.1563204093747266e-01  -2.3947259009101232e-02 1.1399502016679592e-02 -3.7758564408348616e-01  -2.4910877760460911e-02 1.3152480336182616e-02 -4.4234778879851122e-01  -2.5659275570407977e-02 1.4958001808220876e-02 -5.0932341495210776e-01  -2.6214134707484706e-02 1.6802876768093254e-02 -5.7797162396272050e-01  -2.6599976397067487e-02 1.8675710049787495e-02 -6.4781316740963901e-01  -2.6844184591098299e-02 2.0567109671241812e-02 -7.1843801129006368e-01  -2.6977024106477815e-02 2.2469893329749947e-02 -7.8951294217441292e-01  -2.7031635625169369e-02 2.4379334765407684e-02 -8.6078920642262613e-01  -2.7044612750161567e-02 2.6293801459727852e-02 -9.3211076839521423e-01  0.0000000000000000e+00 0.0000000000000000e+00 0.0000000000000000e+00  -3.2564644511190901e-03 7.8330605302633072e-04 -4.4790328953298554e-03  -6.7099070752690048e-03 1.3807672999086957e-03 -1.8147452263860723e-02  -9.9315264803379235e-03 2.1289928828850239e-03 -4.0591152832848990e-02  -1.2854279476405373e-02 3.0418644029175119e-03 -7.0981516230700370e-02  -1.5477152011086978e-02 4.1192371889848343e-03 -1.0851557337189909e-01  -1.7804693857931111e-02 5.3495581560034306e-03 -1.5241021098825863e-01  -1.9843344192289367e-02 6.7166268554485434e-03 -2.0190156453947200e-01  -2.1601703120420118e-02 8.2027378457258278e-03 -2.5624761638006627e-01  -2.3090780730872250e-02 9.7901683524563785e-03 -3.1473310912302260e-01  -2.4324162897006497e-02 1.1461883553985230e-02 -3.7667565247366963e-01  -2.5318133422470496e-02 1.3201927441659654e-02 -4.4143247000656072e-01  -2.6091763479724837e-02 1.4995695198134153e-02 -5.0840751688231978e-01  -2.6666974020334959e-02 1.6830162624311577e-02 -5.7705882346206439e-01  -2.7068576672988516e-02 1.8694100675859155e-02 -6.4690597695997065e-01  -2.7324299466978987e-02 2.0578284929437557e-02 -7.1753768385662220e-01  -2.7464809390909221e-02 2.2475707027755070e-02 -7.8861937592559128e-01  -2.7523796285082679e-02 2.4381786882963594e-02 -8.5990080745367392e-01  -2.7538178778368966e-02 2.6295560464682965e-02 -9.3122465646667907e-01  0.0000000000000000e+00 0.0000000000000000e+00 0.0000000000000000e+00  -1.5898188047263507e-03 -4.7245535356524092e-05 -4.9699091486077596e-03  -3.0106362916485874e-03 3.9388373760057571e-04 -1.9478586684798474e-02  -4.2975917719573877e-03 1.0793977549200743e-03 -4.2691641425038417e-02  -5.4618436936167587e-03 1.9821963524022448e-03 -7.3768627169270656e-02  -6.5058236571253151e-03 3.0740257688990150e-03 -1.1191326129162231e-01  -7.4310139039735022e-03 4.3312717304284367e-03 -1.5634748602253076e-01  -8.2398431361903144e-03 5.7324011580679873e-03 -2.0631055388010652e-01  -8.9358260083396111e-03 7.2570687721210374e-03 -2.6106302007101312e-01  -9.5235458842574221e-03 8.8858929658540316e-03 -3.1989234871534061e-01  -1.0008666099842909e-02 1.0600496652435003e-02 -3.8211931020582435e-01  -1.0397957267363946e-02 1.2383648449044703e-02 -4.4710485232723318e-01  -1.0699324094968753e-02 1.4219443452951048e-02 -5.1425727472010863e-01  -1.0921825915170706e-02 1.6093501001929567e-02 -5.8303960016888978e-01  -1.1075690295883374e-02 1.7993170823905898e-02 -6.5297707056610699e-01  -1.1172322000642658e-02 1.9907744592176060e-02 -7.2366471772332741e-01  -1.1224317171026125e-02 2.1828668053070037e-02 -7.9477497818132414e-01  -1.1245504789849019e-02 2.3749718744692651e-02 -8.6606541242714130e-01  -1.1250681088337185e-02 2.5667296062707332e-02 -9.3738705151111990e-01  0.0000000000000000e+00 0.0000000000000000e+00 0.0000000000000000e+00  -1.5739480898239605e-03 5.9010018324482766e-05 -5.1055684283742159e-03  -3.0826963235049513e-03 4.7960964068417513e-04 -1.9583949585340703e-02  -4.4329163256866541e-03 1.1571183675879767e-03 -4.2692163793750001e-02  -5.6548349496208369e-03 2.0521215526066935e-03 -7.3652467378419295e-02  -6.7506244653948800e-03 3.1362298773327997e-03 -1.1168321879939269e-01  -7.7220042213240461e-03 4.3858766413547821e-03 -1.5601125772495683e-01  -8.5715919757890034e-03 5.7796096258187083e-03 -2.0587756635292265e-01  -9.3030663121056647e-03 7.2971589323235775e-03 -2.6054330860443137e-01  -9.9211868144000303e-03 8.9192152230611593e-03 -3.1929610305175021e-01  -1.0431827016014686e-02 1.0627473844892609e-02 -3.8145665609189000e-01  -1.0842011754200612e-02 1.2404777110382586e-02 -4.4638571726993104e-01  -1.1159948768511656e-02 1.4235295072446712e-02 -5.1349128252087883e-01  -1.1395051814420621e-02 1.6104722930541281e-02 -5.8223597393233029e-01  -1.1557955840379169e-02 1.8000486741186549e-02 -6.5214453654688009e-01  -1.1660525901401354e-02 1.9911954748066733e-02 -7.2281140564172219e-01  -1.1715866148741455e-02 2.1830650555863185e-02 -7.9390831003030005e-01  -1.1738376008710449e-02 2.3750429809427234e-02 -8.6519193649198300e-01  -1.1743956574000300e-02 2.5667551918661796e-02 -9.3651219127675134e-01  0.0000000000000000e+00 0.0000000000000000e+00 0.0000000000000000e+00  -1.6025470632659686e-03 1.3038528657251941e-04 -5.1602417533367292e-03  -3.1666477578141576e-03 5.5694984570337576e-04 -1.9580010852464795e-02  -4.5768542489098910e-03 1.2312753318502979e-03 -4.2589471236185977e-02  -5.8542184902329571e-03 2.1200956390089467e-03 -7.3442689393398097e-02  -7.0002888974366436e-03 3.1971530432399120e-03 -1.1136973174090500e-01  -8.0166300360338828e-03 4.4395631075988947e-03 -1.5560169440111168e-01  -8.9059107140035555e-03 5.8261515294655997e-03 -2.0538109994647108e-01  -9.6719313595446544e-03 7.3367874447958911e-03 -2.5996960517428114e-01  -1.0319620088924945e-02 8.9522551301680475e-03 -3.1865488277416509e-01  -1.0855065779956655e-02 1.0654328975837997e-02 -3.8075747712108593e-01  -1.1285557466841763e-02 1.2425926179488140e-02 -4.4563784054686167e-01  -1.1619617612938997e-02 1.4251290914932642e-02 -5.1270356485018442e-01  -1.1867026563069443e-02 1.6116192635816165e-02 -5.8141676989563207e-01  -1.2038838688606422e-02 1.8008131649012060e-02 -6.5130160209172683e-01  -1.2147390806348825e-02 1.9916549732779138e-02 -7.2195180010533400e-01  -1.2206304306586169e-02 2.1833044473538791e-02 -7.9303829261017011e-01  -1.2230532283651790e-02 2.3751556255383197e-02 -8.6431683976397877e-01  -1.2236725759174323e-02 2.5668318428378037e-02 -9.3563618543760341e-01  0.0000000000000000e+00 0.0000000000000000e+00 0.0000000000000000e+00  -1.6439559910577839e-03 1.9088535678651246e-04 -5.1401014486349246e-03  -3.2614293933499981e-03 6.3011037337569909e-04 -1.9469977275934691e-02  -4.7299483218180994e-03 1.3051255163811833e-03 -4.2378047730593713e-02  -6.0617345569692564e-03 2.1893709940194700e-03 -7.3131015607386926e-02  -7.2570935885621531e-03 3.2598423871622456e-03 -1.1096408467674149e-01  -8.3174129409542500e-03 4.4950708644319135e-03 -1.5511049721400233e-01  -9.2454343780819636e-03 5.8744247916334199e-03 -2.0481356777570894e-01  -1.0045093789333662e-02 7.3780071571130888e-03 -2.5933512939926090e-01  -1.0721498930663799e-02 8.9867306567159629e-03 -3.1796273114255341e-01  -1.1280964462993490e-02 1.0682462474744716e-02 -3.8001662394047792e-01  -1.1731053939934608e-02 1.2448200815592825e-02 -4.4485684650522545e-01  -1.2080614871622675e-02 1.4268267299656013e-02 -5.1189047438223700e-01  -1.2339804498212420e-02 1.6128507940276746e-02 -5.8057901400980194e-01  -1.2520106891139485e-02 1.8016499143029888e-02 -6.5044590237697997e-01  -1.2634341515061034e-02 1.9921757303263232e-02 -7.2108407265788899e-01  -1.2696659556280637e-02 2.1835953303465657e-02 -7.9216355166863295e-01  -1.2722563909739287e-02 2.3753117524932438e-02 -8.6343909070209113e-01  -1.2729328653455989e-02 2.5669594960386777e-02 -9.3475819426295781e-01  0.0000000000000000e+00 0.0000000000000000e+00 0.0000000000000000e+00  -1.6832242981546081e-03 2.5151068902174773e-04 -5.0523574582157556e-03  -3.3580230287141594e-03 7.0413901837633951e-04 -1.9259111197480912e-02  -4.8857957382917334e-03 1.3813513607541189e-03 -4.2059048807212319e-02  -6.2722576219346165e-03 2.2616417013433293e-03 -7.2716662050660352e-02  -7.5167856416936936e-03 3.3256011332396668e-03 -1.1046477308631447e-01  -8.6208483844900877e-03 4.5534691913563068e-03 -1.5453596876801257e-01  -9.5873386306603303e-03 5.9253132041765235e-03 -2.0417329813787108e-01  -1.0420354630783951e-02 7.4215355731559376e-03 -2.5863831962329303e-01  -1.1125195167181431e-02 9.0232047978351885e-03 -3.1721822682527367e-01  -1.1708406739973734e-02 1.0712293270459011e-02 -3.7923282417635595e-01  -1.2177831419401314e-02 1.2471886933207893e-02 -4.4404161128914932e-01  -1.2542644982230186e-02 1.4286389475808799e-02 -5.1105103101578786e-01  -1.2813384504352609e-02 1.6141727351671950e-02 -5.7972186256607294e-01  -1.3001966646783559e-02 1.8025556733559912e-02 -6.4957672060126603e-01  -1.3121697354605496e-02 1.9927472088633217e-02 -7.2020762133587268e-01  -1.3187266624589978e-02 2.1839219231042244e-02 -7.9128358310766189e-01  -1.3214737075060067e-02 2.3754922431966329e-02 -8.6255825356588867e-01  -1.3221967310922867e-02 2.5671159123998224e-02 -9.3387785901525289e-01  0.0000000000000000e+00 0.0000000000000000e+00 0.0000000000000000e+00  -1.7143994439261258e-03 3.2061777249143349e-04 -4.8950492659076503e-03  -3.4503348384882309e-03 7.8395130871883193e-04 -1.8947387588116406e-02  -5.0393281454084839e-03 1.4624488878939470e-03 -4.1633066670445543e-02  -6.4812887809969676e-03 2.3383054726167432e-03 -7.2199765105122410e-02  -7.7754119004343220e-03 3.3953604909930384e-03 -1.0987158851283857e-01  -8.9235273562490013e-03 4.6154598101199856e-03 -1.5387775083868599e-01  -9.9287457134064495e-03 5.9793714667432819e-03 -2.0345988619386868e-01  -1.0795343687203834e-02 7.4678112874103798e-03 -2.5787877112826990e-01  -1.1528815151428935e-02 9.0620135548127277e-03 -3.1642098594459106e-01  -1.2135938327555627e-02 1.0744062627258777e-02 -3.7840572471810285e-01  -1.2624831915906822e-02 1.2497137446530098e-02 -4.4319181818370401e-01  -1.3004997351263464e-02 1.4305728470401834e-02 -5.1018495833881750e-01  -1.3287348677964462e-02 1.6155847144027492e-02 -5.7884508257448286e-01  -1.3484232220820453e-02 1.8035234077900596e-02 -6.4869386965498976e-01  -1.3609438079798452e-02 1.9933566946733608e-02 -7.1932230582897350e-01  -1.3678199802853635e-02 2.1842670522095719e-02 -7.9039828933276157e-01  -1.3707162503268183e-02 2.3756763944365586e-02 -8.6167426282448289e-01  -1.3714754835825935e-02 2.5672748879417111e-02 -9.3299515456352433e-01  0.0000000000000000e+00 0.0000000000000000e+00 0.0000000000000000e+00  -1.7330223999099941e-03 4.0834268342500936e-04 -4.6546154226961628e-03  -3.5317595476030295e-03 8.7619152108022900e-04 -1.8527543085236905e-02  -5.1834880012994128e-03 1.5528081105236969e-03 -4.1097090672464670e-02  -6.6819245512682477e-03 2.4224924891925919e-03 -7.1578673783749075e-02  -8.0265856410054563e-03 3.4715517422998941e-03 -1.0918336009467845e-01  -9.2197197468950279e-03 4.6830306709112549e-03 -1.5313491454276251e-01  -1.0264623083862535e-02 6.0382501033155490e-03 -2.0267257795692797e-01  -1.1165725657471001e-02 7.5181944589442894e-03 -2.5705588248520184e-01  -1.1928700788957714e-02 9.1042529716547048e-03 -3.1557054937475859e-01  -1.2560546528194286e-02 1.0778622490310091e-02 