<?xml version="1.0"?>
<VTKFile type="UnstructuredGrid"  version="0.1"  >
<UnstructuredGrid>
<Piece  NumberOfPoints="760" NumberOfCells="3024">
<Points>
<DataArray  type="Float64"  NumberOfComponents="3"  format="ascii">0 0 0  0.05555555555555555 0 0  0.1111111111111111 0 0  0.1666666666666667 0 0  0.2222222222222222 0 0  0.2777777777777778 0 0  0.3333333333333333 0 0  0.3888888888888889 0 0  0.4444444444444444 0 0  0.5 0 0  0.5555555555555556 0 0  0.6111111111111112 0 0  0.6666666666666666 0 0  0.7222222222222222 0 0  0.7777777777777778 0 0  0.8333333333333334 0 0  0.8888888888888888 0 0  0.9444444444444444 0 0  1 0 0  0 0.01428571428571429 0  0.05555555555555555 0.01428571428571429 0  0.1111111111111111 0.01428571428571429 0  0.1666666666666667 0.01428571428571429 0  0.2222222222222222 0.01428571428571429 0  0.2777777777777778 0.01428571428571429 0  0.3333333333333333 0.01428571428571429 0  0.3888888888888889 0.01428571428571429 0  0.4444444444444444 0.01428571428571429 0  0.5 0.01428571428571429 0  0.5555555555555556 0.01428571428571429 0  0.6111111111111112 0.01428571428571429 0  0.6666666666666666 0.01428571428571429 0  0.7222222222222222 0.01428571428571429 0  0.7777777777777778 0.01428571428571429 0  0.8333333333333334 0.01428571428571429 0  0.8888888888888888 0.01428571428571429 0  0.9444444444444444 0.01428571428571429 0  1 0.01428571428571429 0  0 0.02857142857142857 0  0.05555555555555555 0.02857142857142857 0  0.1111111111111111 0.02857142857142857 0  0.1666666666666667 0.02857142857142857 0  0.2222222222222222 0.02857142857142857 0  0.2777777777777778 0.02857142857142857 0  0.3333333333333333 0.02857142857142857 0  0.3888888888888889 0.02857142857142857 0  0.4444444444444444 0.02857142857142857 0  0.5 0.02857142857142857 0  0.5555555555555556 0.02857142857142857 0  0.6111111111111112 0.02857142857142857 0  0.6666666666666666 0.02857142857142857 0  0.7222222222222222 0.02857142857142857 0  0.7777777777777778 0.02857142857142857 0  0.8333333333333334 0.02857142857142857 0  0.8888888888888888 0.02857142857142857 0  0.9444444444444444 0.02857142857142857 0  1 0.02857142857142857 0  0 0.04285714285714286 0  0.05555555555555555 0.04285714285714286 0  0.1111111111111111 0.04285714285714286 0  0.1666666666666667 0.04285714285714286 0  0.2222222222222222 0.04285714285714286 0  0.2777777777777778 0.04285714285714286 0  0.3333333333333333 0.04285714285714286 0  0.3888888888888889 0.04285714285714286 0  0.4444444444444444 0.04285714285714286 0  0.5 0.04285714285714286 0  0.5555555555555556 0.04285714285714286 0  0.6111111111111112 0.04285714285714286 0  0.6666666666666666 0.04285714285714286 0  0.7222222222222222 0.04285714285714286 0  0.7777777777777778 0.04285714285714286 0  0.8333333333333334 0.04285714285714286 0  0.8888888888888888 0.04285714285714286 0  0.9444444444444444 0.04285714285714286 0  1 0.04285714285714286 0  0 0.05714285714285715 0  0.05555555555555555 0.05714285714285715 0  0.1111111111111111 0.05714285714285715 0  0.1666666666666667 0.05714285714285715 0  0.2222222222222222 0.05714285714285715 0  0.2777777777777778 0.05714285714285715 0  0.3333333333333333 0.05714285714285715 0  0.3888888888888889 0.05714285714285715 0  0.4444444444444444 0.05714285714285715 0  0.5 0.05714285714285715 0  0.5555555555555556 0.05714285714285715 0  0.6111111111111112 0.05714285714285715 0  0.6666666666666666 0.05714285714285715 0  0.7222222222222222 0.05714285714285715 0  0.7777777777777778 0.05714285714285715 0  0.8333333333333334 0.05714285714285715 0  0.8888888888888888 0.05714285714285715 0  0.9444444444444444 0.05714285714285715 0  1 0.05714285714285715 0  0 0.07142857142857142 0  0.05555555555555555 0.07142857142857142 0  0.1111111111111111 0.07142857142857142 0  0.1666666666666667 0.07142857142857142 0  0.2222222222222222 0.07142857142857142 0  0.2777777777777778 0.07142857142857142 0  0.3333333333333333 0.07142857142857142 0  0.3888888888888889 0.07142857142857142 0  0.4444444444444444 0.07142857142857142 0  0.5 0.07142857142857142 0  0.5555555555555556 0.07142857142857142 0  0.6111111111111112 0.07142857142857142 0  0.6666666666666666 0.07142857142857142 0  0.7222222222222222 0.07142857142857142 0  0.7777777777777778 0.07142857142857142 0  0.8333333333333334 0.07142857142857142 0  0.8888888888888888 0.07142857142857142 0  0.9444444444444444 0.07142857142857142 0  1 0.07142857142857142 0  0 0.08571428571428573 0  0.05555555555555555 0.08571428571428573 0  0.1111111111111111 0.08571428571428573 0  0.1666666666666667 0.08571428571428573 0  0.2222222222222222 0.08571428571428573 0  0.2777777777777778 0.08571428571428573 0  0.3333333333333333 0.08571428571428573 0  0.3888888888888889 0.08571428571428573 0  0.4444444444444444 0.08571428571428573 0  0.5 0.08571428571428573 0  0.5555555555555556 0.08571428571428573 0  0.6111111111111112 0.08571428571428573 0  0.6666666666666666 0.08571428571428573 0  0.7222222222222222 0.08571428571428573 0  0.7777777777777778 0.08571428571428573 0  0.8333333333333334 0.08571428571428573 0  0.8888888888888888 0.08571428571428573 0  0.9444444444444444 0.08571428571428573 0  1 0.08571428571428573 0  0 0.1 0  0.05555555555555555 0.1 0  0.1111111111111111 0.1 0  0.1666666666666667 0.1 0  0.2222222222222222 0.1 0  0.2777777777777778 0.1 0  0.3333333333333333 0.1 0  0.3888888888888889 0.1 0  0.4444444444444444 0.1 0  0.5 0.1 0  0.5555555555555556 0.1 0  0.6111111111111112 0.1 0  0.6666666666666666 0.1 0  0.7222222222222222 0.1 0  0.7777777777777778 0.1 0  0.8333333333333334 0.1 0  0.8888888888888888 0.1 0  0.9444444444444444 0.1 0  1 0.1 0  0 0 0.01  0.05555555555555555 0 0.01  0.1111111111111111 0 0.01  0.1666666666666667 0 0.01  0.2222222222222222 0 0.01  0.2777777777777778 0 0.01  0.3333333333333333 0 0.01  0.3888888888888889 0 0.01  0.4444444444444444 0 0.01  0.5 0 0.01  0.5555555555555556 0 0.01  0.6111111111111112 0 0.01  0.6666666666666666 0 0.01  0.7222222222222222 0 0.01  0.7777777777777778 0 0.01  0.8333333333333334 0 0.01  0.8888888888888888 0 0.01  0.9444444444444444 0 0.01  1 0 0.01  0 0.01428571428571429 0.01  0.05555555555555555 0.01428571428571429 0.01  0.1111111111111111 0.01428571428571429 0.01  0.1666666666666667 0.01428571428571429 0.01  0.2222222222222222 0.01428571428571429 0.01  0.2777777777777778 0.01428571428571429 0.01  0.3333333333333333 0.01428571428571429 0.01  0.3888888888888889 0.01428571428571429 0.01  0.4444444444444444 0.01428571428571429 0.01  0.5 0.01428571428571429 0.01  0.5555555555555556 0.01428571428571429 0.01  0.6111111111111112 0.01428571428571429 0.01  0.6666666666666666 0.01428571428571429 0.01  0.7222222222222222 0.01428571428571429 0.01  0.7777777777777778 0.01428571428571429 0.01  0.8333333333333334 0.01428571428571429 0.01  0.8888888888888888 0.01428571428571429 0.01  0.9444444444444444 0.01428571428571429 0.01  1 0.01428571428571429 0.01  0 0.02857142857142857 0.01  0.05555555555555555 0.02857142857142857 0.01  0.1111111111111111 0.02857142857142857 0.01  0.1666666666666667 0.02857142857142857 0.01  0.2222222222222222 0.02857142857142857 0.01  0.2777777777777778 0.02857142857142857 0.01  0.3333333333333333 0.02857142857142857 0.01  0.3888888888888889 0.02857142857142857 0.01  0.4444444444444444 0.02857142857142857 0.01  0.5 0.02857142857142857 0.01  0.5555555555555556 0.02857142857142857 0.01  0.6111111111111112 0.02857142857142857 0.01  0.6666666666666666 0.02857142857142857 0.01  0.7222222222222222 0.02857142857142857 0.01  0.7777777777777778 0.02857142857142857 0.01  0.8333333333333334 0.02857142857142857 0.01  0.8888888888888888 0.02857142857142857 0.01  0.9444444444444444 0.02857142857142857 0.01  1 0.02857142857142857 0.01  0 0.04285714285714286 0.01  0.05555555555555555 0.04285714285714286 0.01  0.1111111111111111 0.04285714285714286 0.01  0.1666666666666667 0.04285714285714286 0.01  0.2222222222222222 0.04285714285714286 0.01  0.2777777777777778 0.04285714285714286 0.01  0.3333333333333333 0.04285714285714286 0.01  0.3888888888888889 0.04285714285714286 0.01  0.4444444444444444 0.04285714285714286 0.01  0.5 0.04285714285714286 0.01  0.5555555555555556 0.04285714285714286 0.01  0.6111111111111112 0.04285714285714286 0.01  0.6666666666666666 0.04285714285714286 0.01  0.7222222222222222 0.04285714285714286 0.01  0.7777777777777778 0.04285714285714286 0.01  0.8333333333333334 0.04285714285714286 0.01  0.8888888888888888 0.04285714285714286 0.01  0.9444444444444444 0.04285714285714286 0.01  1 0.04285714285714286 0.01  0 0.05714285714285715 0.01  0.05555555555555555 0.05714285714285715 0.01  0.1111111111111111 0.05714285714285715 0.01  0.1666666666666667 0.05714285714285715 0.01  0.2222222222222222 0.05714285714285715 0.01  0.2777777777777778 0.05714285714285715 0.01  0.3333333333333333 0.05714285714285715 0.01  0.3888888888888889 0.05714285714285715 0.01  0.4444444444444444 0.05714285714285715 0.01  0.5 0.05714285714285715 0.01  0.5555555555555556 0.05714285714285715 0.01  0.6111111111111112 0.05714285714285715 0.01  0.6666666666666666 0.05714285714285715 0.01  0.7222222222222222 0.05714285714285715 0.01  0.7777777777777778 0.05714285714285715 0.01  0.8333333333333334 0.05714285714285715 0.01  0.8888888888888888 0.05714285714285715 0.01  0.9444444444444444 0.05714285714285715 0.01  1 0.05714285714285715 0.01  0 0.07142857142857142 0.01  0.05555555555555555 0.07142857142857142 0.01  0.1111111111111111 0.07142857142857142 0.01  0.1666666666666667 0.07142857142857142 0.01  0.2222222222222222 0.07142857142857142 0.01  0.2777777777777778 0.07142857142857142 0.01  0.3333333333333333 0.07142857142857142 0.01  0.3888888888888889 0.07142857142857142 0.01  0.4444444444444444 0.07142857142857142 0.01  0.5 0.07142857142857142 0.01  0.5555555555555556 0.07142857142857142 0.01  0.6111111111111112 0.07142857142857142 0.01  0.6666666666666666 0.07142857142857142 0.01  0.7222222222222222 0.07142857142857142 0.01  0.7777777777777778 0.07142857142857142 0.01  0.8333333333333334 0.07142857142857142 0.01  0.8888888888888888 0.07142857142857142 0.01  
[...]
<PointData  Vectors="f_33"> 
<DataArray  type="Float64"  Name="f_33"  NumberOfComponents="3" format="ascii">0.0000000000000000e+00 0.0000000000000000e+00 0.0000000000000000e+00  -3.0766032301892659e-03 -2.0162731036021757e-04 -4.4012146353297095e-03  -5.7422349237383685e-03 9.9599294678106345e-05 -1.6863940252793950e-02  -8.1743120739301220e-03 5.8599498295780744e-04 -3.6820479130771556e-02  -1.0376127398838740e-02 1.2060132191710935e-03 -6.3555974251617006e-02  -1.2351205166559557e-02 1.9335852598014464e-03 -9.6393334872874048e-02  -1.4102574781830952e-02 2.7518062588071488e-03 -1.3466996140019333e-01  -1.5634758353776854e-02 3.6470182220459599e-03 -1.7773678950797281e-01  -1.6954079585093599e-02 4.6069779354819358e-03 -2.2496146093435748e-01  -1.8068768151722755e-02 5.6202814273496387e-03 -2.7573295810130716e-01  -1.8989072107887296e-02 6.6762307419061633e-03 -3.2946701977126519e-01  -1.9727373186439665e-02 7.7648631869328090e-03 -3.8561208547279274e-01  -2.0298290023998446e-02 8.8770431886313513e-03 -4.4365563335374175e-01  -2.0718763601635208e-02 1.0004579910864137e-02 -5.0313082063410153e-01  -2.1008124045878724e-02 1.1140357077589771e-02 -5.6362335636630911e-01  -2.1188141206684226e-02 1.2278471180026802e-02 -6.2477854820883916e-01  -2.1283075931188992e-02 1.3414377475163535e-02 -6.8630847740760670e-01  -2.1319786355147630e-02 1.4545030831665383e-02 -7.4799933750253877e-01  -2.1327651671839368e-02 1.5669149623770317e-02 -8.0971971545050481e-01  0.0000000000000000e+00 0.0000000000000000e+00 0.0000000000000000e+00  -2.9316641733885861e-03 -4.9231033412887105e-05 -4.5304660561013435e-03  -5.6550298521428942e-03 2.3471006435310125e-04 -1.6955198868454528e-02  -8.1356191450687697e-03 7.0826651229170649e-04 -3.6820611055668140e-02  -1.0382720724401466e-02 1.3158505150677017e-03 -6.3455505381784558e-02  -1.2399632695360865e-02 2.0311968403242033e-03 -9.6194819481001420e-02  -1.4189395953336417e-02 2.8374369711763837e-03 -1.3437997630225401e-01  -1.5756542921663761e-02 3.7210028244264361e-03 -1.7736334771968826e-01  -1.7107393143547499e-02 4.6697528485796919e-03 -2.2451309187794827e-01  -1.8250172083918319e-02 5.6723914463029292e-03 -2.7521833611362245e-01  -1.9195136110561319e-02 6.7183355464595224e-03 -3.2889478644408254e-01  -1.9954694953090758e-02 7.7977432227703978e-03 -3.8499074009850764e-01  -2.0543519248410153e-02 8.9016045357019589e-03 -4.4299344524220635e-01  -2.0978629055467483e-02 1.0021858003135178e-02 -5.0243574623456111e-01  -2.1279463056154486e-02 1.1151519109318865e-02 -5.6290295468089369e-01  -2.1467929877947638e-02 1.2284816878299985e-02 -6.2403989050862374e-01  -2.1568452325425886e-02 1.3417337714362640e-02 -6.8555804334162851e-01  -2.1608080742533581e-02 1.4546150385693901e-02 -7.4724286304989740e-01  -2.1616949249572661e-02 1.5669722350047904e-02 -8.0896183451097770e-01  0.0000000000000000e+00 0.0000000000000000e+00 0.0000000000000000e+00  -2.9164788090881646e-03 6.7064311925801263e-05 -4.5810216158421102e-03  -5.6615842672120727e-03 3.6650380652341317e-04 -1.6956408083772294e-02  -8.1773044887499674e-03 8.3561207545417070e-04 -3.6734194553774385e-02  -1.0459732696262651e-02 1.4331380690403434e-03 -6.3275954962214248e-02  -1.2509712456365934e-02 2.1366170202014394e-03 -9.5925502449052194e-02  -1.4329669036153913e-02 2.9305555146782588e-03 -1.3402755204495603e-01  -1.5923971857694310e-02 3.8019186192454462e-03 -1.7693567980266900e-01  -1.7298918139408811e-02 4.7388209186050778e-03 -2.2401843944272812e-01  -1.8462770360343158e-02 5.7301336846676100e-03 -2.7466501109072244e-01  -1.9425859587119770e-02 6.7654135071194086e-03 -3.2829098201059631e-01  -2.0200701630920265e-02 7.8349519095403386e-03 -3.8434442066400559e-01  -2.0802103216671960e-02 8.9298730254841092e-03 -4.4231225660538293e-01  -2.1247250886707949e-02 1.0042251767628642e-02 -5.0172693053144635e-01  -2.1555781036999445e-02 1.1165241836895016e-02 -5.6217326446174731e-01  -2.1749830847584400e-02 1.2293210169488519e-02 -6.2329549928947481e-01  -2.1854074706379484e-02 1.3421878108887593e-02 -6.8480444864603973e-01  -2.1895817238724687e-02 1.4548446227060032e-02 -7.4648476622187931e-01  -2.1905507491166740e-02 1.5671337731786441e-02 -8.0820288802784757e-01  0.0000000000000000e+00 0.0000000000000000e+00 0.0000000000000000e+00  -2.9228879649025163e-03 1.6713913907308227e-04 -4.5659358818162885e-03  -5.6897020502598324e-03 4.9348254948486641e-04 -1.6864710007049998e-02  -8.2389886667319241e-03 9.6477791229404976e-04 -3.6554092035255725e-02  -1.0555074165894558e-02 1.5545408058309335e-03 -6.3008714024400017e-02  -1.2636247135867335e-02 2.2467406647374518e-03 -9.5576795040394208e-02  -1.4484459596589724e-02 3.0283062119459817e-03 -1.3360470032241054e-01  -1.6103996262147049e-02 3.8871506422736785e-03 -1.7644660167601048e-01  -1.7501170594898825e-02 4.8118030588640334e-03 -2.2347118275648634e-01  -1.8684307502492670e-02 5.7913629501764570e-03 -2.7406752502790044e-01  -1.9663834308907866e-02 6.8155519679937533e-03 -3.2765098338101273e-01  -2.0452393695222428e-02 7.8748071438811615e-03 -3.8366929503792496e-01  -2.1064949450644025e-02 8.9603938625005385e-03 -4.4160897040438923e-01  -2.1518875991349749e-02 1.0064528906812047e-02 -5.0100194509981566e-01  -2.1834029280017757e-02 1.1180509106621807e-02 -5.6143244904925504e-01  -2.2032798104100165e-02 1.2302843758147523e-02 -6.2254404216680570e-01  -2.2140134440566523e-02 1.3427392805852539e-02 -6.8404676564944200e-01  -2.2183612936238505e-02 1.4551498882426080e-02 -7.4572439573889993e-01  -2.2193950575513575e-02 1.5673737708071223e-02 -8.0744226044992762e-01  0.0000000000000000e+00 0.0000000000000000e+00 0.0000000000000000e+00  -2.9241242080950088e-03 2.6442882724361252e-04 -4.4904526261819603e-03  -5.7195449835651972e-03 6.1943786567501629e-04 -1.6684556409500031e-02  -8.3051552248143597e-03 1.0954905493545646e-03 -3.6280761710340614e-02  -1.0655674488529375e-02 1.6787160625753893e-03 -6.2652733107645672e-02  -1.2768031186573854e-02 2.3599775677583482e-03 -9.5147123717567103e-02  -1.4644199948678912e-02 3.1291115908402213e-03 -1.3310973807130269e-01  -1.6288563271897153e-02 3.9752165119142412e-03 -1.7589448907830255e-01  -1.7707517261015826e-02 4.8873377008050844e-03 -2.2286982068664596e-01  -1.8909475659314584e-02 5.8548451486147134e-03 -2.7342452229396441e-01  -1.9904974095406789e-02 6.8676437035081516e-03 -3.2697358573979918e-01  -2.0706788890839798e-02 7.9163246468505200e-03 -3.8296430716793933e-01  -2.1330045838132933e-02 8.9922998339298267e-03 -4.4088267359384387e-01  -2.1792311650030406e-02 1.0087931922845038e-02 -5.0026001175165002e-01  -2.2113666327318475e-02 1.1196664654353327e-02 -5.6067985489231953e-01  -2.2316755990701820e-02 1.2313153769300306e-02 -6.2178497753175654e-01  -2.2426821822776426e-02 1.3433401703403052e-02 -6.8328454789176574e-01  -2.2471727537209794e-02 1.4554901846341076e-02 -7.4496137365621629e-01  -2.2482502929998448e-02 1.5676535740121622e-02 -8.0667964702536610e-01  0.0000000000000000e+00 0.0000000000000000e+00 0.0000000000000000e+00  -2.9103223153984308e-03 3.7032868871514943e-04 -4.3518553407391417e-03  -5.7415008728342433e-03 7.5051609527071960e-04 -1.6415419267364433e-02  -8.3673911792584033e-03 1.2299859921611111e-03 -3.5913930610271566e-02  -1.0754037825225212e-02 1.8062111896186739e-03 -6.2207440699588501e-02  -1.2898425889564641e-02 2.4762546704528887e-03 -9.4635744204840513e-02  -1.4803092413903280e-02 3.2326737055069603e-03 -1.3254188579842638e-01  -1.6472692039598433e-02 4.0657360624651003e-03 -1.7527859811769586e-01  -1.7913761708026898e-02 4.9650145116647308e-03 -2.2221367556073926e-01  -1.9134823021909081e-02 5.9201589475865639e-03 -2.7273540319131961e-01  -2.0146524143601564e-02 6.9212634852953443e-03 -3.2625827090838305e-01  -2.0961773420459354e-02 7.9590779758376140e-03 -3.8222902025303901e-01  -2.1595854762638377e-02 9.0251643900242720e-03 -4.4013300870393784e-01  -2.2066522475146733e-02 1.0112034768888995e-02 -4.9950084902011388e-01  -2.2394075686067064e-02 1.1213283538886100e-02 -5.5991527193806079e-01  -2.2601413545976012e-02 1.2323717696370522e-02 -6.2101816006580968e-01  -2.2714069602453750e-02 1.3439487921045502e-02 -6.8251770351786578e-01  -2.2760219606238832e-02 1.4558247202571499e-02 -7.4419564509372449e-01  -2.2771260668732671e-02 1.5679296348899675e-02 -8.0591503165353173e-01  0.0000000000000000e+00 0.0000000000000000e+00 0.0000000000000000e+00  -2.8675979801749429e-03 4.9468417793080519e-04 -4.1371075351726988e-03  -5.7395502292637022e-03 8.9253552818772952e-04 -1.6050172281960179e-02  -8.4095522000699387e-03 1.3710642819506930e-03 -3.5450045984725356e-02  -1.0834787884107156e-02 1.9382487191708761e-03 -6.1670517836201519e-02  -1.3013336277228456e-02 2.5960950555038403e-03 -9.4040875671336649e-02  -1.4948513405871999e-02 3.3392061723432759e-03 -1.3189969500755627e-01  -1.6645278823158322e-02 4.1587711040077784e-03 -1.7459774464688707e-01  -1.8110307737088029e-02 5.0448055324132570e-03 -2.2150179914593790e-01  -1.9352217383016942e-02 5.9872114529777101e-03 -2.7199943816433497e-01  -2.0381751754505434e-02 6.9762643177914488e-03 -3.2550451296658234e-01  -2.1211932031257916e-02 8.0028719040759876e-03 -3.8146309608056317e-01  -2.1858179622861781e-02 9.0587484630689063e-03 -4.3935980727543089e-01  -2.2338414963296197e-02 1.0136558777101574e-02 -4.9872443772849123e-01  -2.2673134324141836e-02 1.1230052077645717e-02 -5.5913880695219320e-01  -2.2885467267781737e-02 1.2334192189241006e-02 -6.2024379527468188e-01  -2.3001221845059729e-02 1.3445286096816562e-02 -6.8174650233238110e-01  -2.3048901547134074e-02 1.4561147336414610e-02 -7.4342750133409452e-01  -2.3060244208106394e-02 1.5681584664851336e-02 -8.0514869025144142e-01  0.0000000000000000e+00 0.0000000000000000e+00 0.0000000000000000e+00  -2.7366708058224522e-03 6.2963737986167689e-04 -3.8400155290063452e-03  -5.6473617340294553e-03 1.0379199208852897e-03 -1.5589488005291826e-02  -8.3665245150392129e-03 1.5113154325103676e-03 -3.4893595674028666e-02  -1.0836817808598326e-02 2.0677196612818522e-03 -6.1047581034812878e-02  -1.3057036750729256e-02 2.7129142886609427e-03 -9.3368291065277095e-02  -1.5030612746040622e-02 3.4427843505194108e-03 -1.3118871219340578e-01  -1.6762454952232470e-02 4.2491097797998402e-03 -1.7385710127376422e-01  -1.8259194842520921e-02 5.1222165043345088e-03 -2.2073893325237220e-01  -1.9529431383496262e-02 6.0522053509722918e-03 -2.7122091695723632e-01  -2.0583913491770186e-02 7.0295102628427858e-03 -3.2471614341441379e-01  -2.1435690401580765e-02 8.0451856166668129e-03 -3.8066990930914363e-01  -2.2100236469433435e-02 9.0910909310379737e-03 -4.3856599351390613e-01  -2.2595552125417754e-02 1.0160038321932210e-02 -4.9793326221198031e-01  -2.2942242747151894e-02 1.1245927150379323e-02 -5.5835251897372207e-01  -2.3163578487814602e-02 1.2343874460976362e-02 -6.1946353531001286e-01  -2.3285543611444578e-02 1.3450347307514149e-02 -6.8097220930383551e-01  -2.3336928971692830e-02 1.4563293682106062e-02 -7.4265778352809397e-01  -2.3349502797625467e-02 1.5683122259141740e-02 -8.0438100572286908e-01  0.0000000000000000e+00 0.0000000000000000e+00 0.0000000000000000e+00  -1.4285352773416797e-03 -8.6195495191620467e-05 -4.2709326143408506e-03  -2.7109881191489070e-03 1.8632134325307278e-04 -1.6743508958794451e-02  -3.8753445170537399e-03 6.0497229137101299e-04 -3.6709882079368317e-02  -4.9303756100731993e-03 1.1518784226003560e-03 -6.3455611355515529e-02  -5.8779101580828047e-03 1.8086801393028208e-03 -9.6303287616887306e-02  -6.7190911751525894e-03 2.5609633729206040e-03 -1.3459015877643282e-01  -7.4558826697369808e-03 3.3959718590348908e-03 -1.7766704260779120e-01  -8.0911826668592091e-03 4.3017964521312544e-03 -2.2490148218781672e-01  -8.6288257569007640e-03 5.2671355466748617e-03 -2.7568236640143645e-01  -9.0736150435447287e-03 6.2812801883283384e-03 -3.2942533867601259e-01  -9.4313693217258892e-03 7.3341845618603236e-03 -3.8557873919584257e-01  -9.7089699144130015e-03 8.4165706548615226e-03 -4.4362994254905469e-01  -9.9144009223036365e-03 9.5200481806917703e-03 -5.0311199867561818e-01  -1.0056781199285806e-02 1.0637242641661642e-02 -5.6361050627558540e-01  -1.0146389111691986e-02 1.1761929081667758e-02 -6.2477066007746407e-01  -1.0194687964407744e-02 1.2889167557074714e-02 -6.8630442465709030e-01  -1.0214372459128948e-02 1.4015409192202902e-02 -7.4799786462077389e-01  -1.0219171191769570e-02 1.5138671817785479e-02 -8.0971906663603832e-01  0.0000000000000000e+00 0.0000000000000000e+00 0.0000000000000000e+00  -1.3953189743152418e-03 9.6657594805452074e-06 -4.3873464324588113e-03  -2.7372357462720426e-03 2.6414137128180312e-04 -1.6833921519847396e-02  -3.9402599967051696e-03 6.7567374648788898e-04 -3.6710275674069988e-02  -5.0305499913477674e-03 1.2156023295457365e-03 -6.3355693118392328e-02  -6.0098191324530871e-03 1.8654768813036440e-03 -9.6105338958939759e-02  -6.8794051941276340e-03 2.6109287892612516e-03 -1.3430067153054173e-01  -7.6413994094133349e-03 3.4392716371857142e-03 -1.7729400379134974e-01  -8.2987916298125040e-03 4.3386619307249326e-03 -2.2445341703388122e-01  -8.8555054081305568e-03 5.2978624265258489e-03 -2.7516795407277173e-01  -9.3164480641105673e-03 6.3062302187630107e-03 -3.2885322990094956e-01  -9.6875662894531957e-03 7.3537881912857199e-03 -3.8495744495999495e-01  -9.9758971544659548e-03 8.4313296216003870e-03 -4.4296774575824721e-01  -1.0189610821385198e-02 9.5305376638321858e-03 -5.0241687103856247e-01  -1.0338044209090172e-02 1.0644112829529777e-02 -5.6289002366374052e-01  -1.0431726062076955e-02 1.1765906261426679e-02 -6.2403191245959555e-01  -1.0482397942083317e-02 1.2891055543040800e-02 -6.8555391338629335e-01  -1.0503069912706227e-02 1.4016088933043418e-02 -7.4724134814401000e-01  -1.0508209382906685e-02 1.5138916820696461e-02 -8.0896132957362576e-01  0.0000000000000000e+00 0.0000000000000000e+00 0.0000000000000000e+00  -1.4021051418228038e-03 7.3796918396233367e-05 -4.4337869418369594e-03  -2.7744816915805039e-03 3.3344575083845801e-04 -1.6830025184239237e-02  -4.0133499217917682e-03 7.4206020659034532e-04 -3.6621482113068343e-02  -5.1369748901369692e-03 1.2765058515639696e-03 -6.3174766794416831e-02  -6.1466448906421969e-03 1.9201462035472083e-03 -9.5835071207557576e-02  -7.0435540957978771e-03 2.6591951928376998e-03 -1.3394751600513649e-01  -7.8298014820997446e-03 3.4812039203237014e-03 -1.7686575009391539e-01  -8.5084322540024144e-03 4.3744484024155700e-03 -2.2395829544537735e-01  -9.0834525460623747e-03 5.3277731511957270e-03 -2.7461426309160253e-01  -9.5598789506369641e-03 6.3306058546068423e-03 -3.2824915422613882e-01  -9.9437955795194915e-03 7.3730378251300258e-03 -3.8431094164943708e-01  -1.0242406502462355e-02 8.4459314885021956e-03 -4.4228645294357993e-01  -1.0464079779715724e-02 9.5410405244964833e-03 -5.0170802230370382e-01  -1.0618382215339117e-02 1.0651137040051299e-02 -5.6216036185968099e-01  -1.0716104233898450e-02 1.1770143946175865e-02 -6.2328760015004603e-01  -1.0769275073207617e-02 1.2893271168791354e-02 -6.8480043637299559e-01  -1.0791210329822340e-02 1.4017127684741162e-02 -7.4648339664012731e-01  -1.0796835385546062e-02 1.5139617809023754e-02 -8.0820258282894653e-01  0.0000000000000000e+00 0.0000000000000000e+00 0.0000000000000000e+00  -1.4208209342845641e-03 1.2718164080217245e-04 -4.4157219062370516e-03  -2.8215927366764633e-03 3.9791194102997853e-04 -1.6734605713752550e-02  -4.0947670248631099e-03 8.0703860596060986e-04 -3.6438828833112995e-02  -5.2508399138425288e-03 1.3374861371390784e-03 -6.2905769635639319e-02  -6.2900510899421168e-03 1.9754027988813884e-03 -9.5485029735320748e-02  -7.2134277808312769e-03 2.7082066822614087e-03 -1.3352358169915773e-01  -8.0230946071869706e-03 3.5239118772903652e-03 -1.7637577017894160e-01  -8.7221635008596487e-03 4.4109944833052132e-03 -2.2341028787260475e-01  -9.3147326241579953e-03 5.3584097536172152e-03 -2.7401616204554474e-01  -9.8059369311107088e-03 6.3556667474410503e-03 -3.2760866626331331e-01  -1.0202007163354112e-02 7.3929293398889767e-03 -3.8363544296344776e-01  -1.0510323808040178e-02 8.4611307754533134e-03 -4.4158289996698247e-01  -1.0739462409317793e-02 9.5520960109141389e-03 -5.0098286518973389e-01  -1.0899229370822947e-02 1.0658669075472851e-02 -5.6141945721198416e-01  -1.1000687188041369e-02 1.1774844304324418e-02 -6.2253612204543485e-01  -1.1056165052304960e-02 1.2895902261474627e-02 -6.8404278565724630e-01  -1.1079285527453157e-02 1.4018536532187494e-02 -7.4572309985193397e-01  -1.1085336844394210e-02 1.5140762304949788e-02 -8.0744208212905721e-01  0.0000000000000000e+00 0.0000000000000000e+00 0.0000000000000000e+00  -1.4380455478638179e-03 1.7935589881444113e-04 -4.3394216765596742e-03  -2.8704918147092130e-03 4.6183661610878061e-04 -1.6552256143005917e-02  -4.1786926644130232e-03 8.7289932064240890e-04 -3.6163360303906045e-02  -5.3674221013475278e-03 1.3999956473481200e-03 -6.2548074029193740e-02  -6.4360717578192872e-03 2.0323661926410007e-03 -9.5053961174694959e-02  -7.3857128391164768e-03 2.7588836367687499e-03 -1.3302744364011138e-01  -8.2185625358826286e-03 3.5681578060500780e-03 -1.7582265567707789e-01  -8.9378226829881519e-03 4.4489202728114794e-03 -2.2280807524761992e-01  -9.5476931692756919e-03 5.3902596041213603e-03 -2.7337244739968053e-01  -1.0053432405124197e-02 6.3817758638263786e-03 -3.2693068570573797e-01  -1.0461421127752273e-02 7.4137101969391260e-03 -3.8292999180190224e-01  -1.0779218999648160e-02 8.4770695442296738e-03 -4.4085624927860295e-01  -1.1015611633747778e-02 9.5637523767211387e-03 -5.0024067587682508e-01  -1.1180647656742863e-02 1.0666676711247434e-02 -5.6066669203562280e-01  -1.1285665225671935e-02 1.1779910230233547e-02 -6.2177695679401290e-01  -1.1343301828196699e-02 1.2898804785999654e-02 -6.8328052213746393e-01  -1.1367497010064355e-02 1.4020142024399688e-02 -7.4496007556992283e-01  -1.1373874239169130e-02 1.5142146838276782e-02 -8.0667951056258957e-01  0.0000000000000000e+00 0.0000000000000000e+00 0.0000000000000000e+00  -1.4482331471643826e-03 2.3751961018493538e-04 -4.2032140937243419e-03  -2.9155984509628358e-03 5.2943135195624585e-04 -1.6282981605197193e-02  -4.2604761769502973e-03 9.4177921415185923e-04 -3.5795599631293133e-02  -5.4825645756865198e-03 1.4652356223633888e-03 -6.2101809090692850e-02  -6.5810234754317973e-03 2.0918394437669219e-03 -9.4541696211625226e-02  -7.5572002054773955e-03 2.8118333768164775e-03 -1.3245880184631656e-01  -8.4134621624905176e-03 3.6144238180651758e-03 -1.7520606474569228e-01  -9.1531153866088802e-03 4.4886088570008980e-03 -2.2215131414850825e-01  -9.7804650311483846e-03 5.4236179079824726e-03 -2.7268279209434937e-01  -1.0300892717323198e-02 6.4091467777828547e-03 -3.2621491057004171e-01  -1.0720927319285445e-02 7.4355173327243680e-03 -3.8219431633331002e-01  -1.1048305134799834e-02 8.4938131951913780e-03 -4.4010626284866483e-01  -1.1292019044177452e-02 9.5760092402335795e-03 -4.9948125315391528e-01  -1.1462357038869261e-02 1.0675100508785425e-02 -5.5990190440997378e-01  -1.1570930668072353e-02 1.1785231536534881e-02 -6.2100998287804732e-01  -1.1630689565820158e-02 1.2901828206587545e-02 -6.8251356129999019e-01  -1.1655907496270084e-02 1.4021761369917294e-02 -7.4419426664322830e-01  -1.1662527201595295e-02 1.5143539503316695e-02 -8.0591484520793200e-01  0.0000000000000000e+00 0.0000000000000000e+00 0.0000000000000000e+00  -1.4471258219159032e-03 3.1033828525807281e-04 -3.9954605507937042e-03  -2.9508725867722911e-03 6.0639350954604966e-04 -1.5920579996806235e-02  -4.3337410842368643e-03 1.0174410254518941e-03 -3.5332987911146078e-02  -5.5900317213469089e-03 1.5358932664599897e-03 -6.1565576918611462e-02  -6.7191172802478763e-03 2.1559143553841953e-03 -9.3947244071468330e-02  -7.7226698913144239e-03 2.8687707249196192e-03 -1.3181686838778975e-01  -8.6031806620860563e-03 3.6641380722619221e-03 -1.7452535527004950e-01  -9.3640390242229789e-03 4.5312413594489100e-03 -2.2143948989282478e-01  -1.0009642234815846e-02 5.4594403734927006e-03 -2.7194680099667107e-01  -1.0545484879331744e-02 6.4385260073127042e-03 