<?xml version="1.0"?>
<VTKFile type="UnstructuredGrid"  version="0.1"  >
<UnstructuredGrid>
<Piece  NumberOfPoints="760" NumberOfCells="3024">
<Points>
<DataArray  type="Float64"  NumberOfComponents="3"  format="ascii">0 0 0  0.05555555555555555 0 0  0.1111111111111111 0 0  0.1666666666666667 0 0  0.2222222222222222 0 0  0.2777777777777778 0 0  0.3333333333333333 0 0  0.3888888888888889 0 0  0.4444444444444444 0 0  0.5 0 0  0.5555555555555556 0 0  0.6111111111111112 0 0  0.6666666666666666 0 0  0.7222222222222222 0 0  0.7777777777777778 0 0  0.8333333333333334 0 0  0.8888888888888888 0 0  0.9444444444444444 0 0  1 0 0  0 0.01428571428571429 0  0.05555555555555555 0.01428571428571429 0  0.1111111111111111 0.01428571428571429 0  0.1666666666666667 0.01428571428571429 0  0.2222222222222222 0.01428571428571429 0  0.2777777777777778 0.01428571428571429 0  0.3333333333333333 0.01428571428571429 0  0.3888888888888889 0.01428571428571429 0  0.4444444444444444 0.01428571428571429 0  0.5 0.01428571428571429 0  0.5555555555555556 0.01428571428571429 0  0.6111111111111112 0.01428571428571429 0  0.6666666666666666 0.01428571428571429 0  0.7222222222222222 0.01428571428571429 0  0.7777777777777778 0.01428571428571429 0  0.8333333333333334 0.01428571428571429 0  0.8888888888888888 0.01428571428571429 0  0.9444444444444444 0.01428571428571429 0  1 0.01428571428571429 0  0 0.02857142857142857 0  0.05555555555555555 0.02857142857142857 0  0.1111111111111111 0.02857142857142857 0  0.1666666666666667 0.02857142857142857 0  0.2222222222222222 0.02857142857142857 0  0.2777777777777778 0.02857142857142857 0  0.3333333333333333 0.02857142857142857 0  0.3888888888888889 0.02857142857142857 0  0.4444444444444444 0.02857142857142857 0  0.5 0.02857142857142857 0  0.5555555555555556 0.02857142857142857 0  0.6111111111111112 0.02857142857142857 0  0.6666666666666666 0.02857142857142857 0  0.7222222222222222 0.02857142857142857 0  0.7777777777777778 0.02857142857142857 0  0.8333333333333334 0.02857142857142857 0  0.8888888888888888 0.02857142857142857 0  0.9444444444444444 0.02857142857142857 0  1 0.02857142857142857 0  0 0.04285714285714286 0  0.05555555555555555 0.04285714285714286 0  0.1111111111111111 0.04285714285714286 0  0.1666666666666667 0.04285714285714286 0  0.2222222222222222 0.04285714285714286 0  0.2777777777777778 0.04285714285714286 0  0.3333333333333333 0.04285714285714286 0  0.3888888888888889 0.04285714285714286 0  0.4444444444444444 0.04285714285714286 0  0.5 0.04285714285714286 0  0.5555555555555556 0.04285714285714286 0  0.6111111111111112 0.04285714285714286 0  0.6666666666666666 0.04285714285714286 0  0.7222222222222222 0.04285714285714286 0  0.7777777777777778 0.04285714285714286 0  0.8333333333333334 0.04285714285714286 0  0.8888888888888888 0.04285714285714286 0  0.9444444444444444 0.04285714285714286 0  1 0.04285714285714286 0  0 0.05714285714285715 0  0.05555555555555555 0.05714285714285715 0  0.1111111111111111 0.05714285714285715 0  0.1666666666666667 0.05714285714285715 0  0.2222222222222222 0.05714285714285715 0  0.2777777777777778 0.05714285714285715 0  0.3333333333333333 0.05714285714285715 0  0.3888888888888889 0.05714285714285715 0  0.4444444444444444 0.05714285714285715 0  0.5 0.05714285714285715 0  0.5555555555555556 0.05714285714285715 0  0.6111111111111112 0.05714285714285715 0  0.6666666666666666 0.05714285714285715 0  0.7222222222222222 0.05714285714285715 0  0.7777777777777778 0.05714285714285715 0  0.8333333333333334 0.05714285714285715 0  0.8888888888888888 0.05714285714285715 0  0.9444444444444444 0.05714285714285715 0  1 0.05714285714285715 0  0 0.07142857142857142 0  0.05555555555555555 0.07142857142857142 0  0.1111111111111111 0.07142857142857142 0  0.1666666666666667 0.07142857142857142 0  0.2222222222222222 0.07142857142857142 0  0.2777777777777778 0.07142857142857142 0  0.3333333333333333 0.07142857142857142 0  0.3888888888888889 0.07142857142857142 0  0.4444444444444444 0.07142857142857142 0  0.5 0.07142857142857142 0  0.5555555555555556 0.07142857142857142 0  0.6111111111111112 0.07142857142857142 0  0.6666666666666666 0.07142857142857142 0  0.7222222222222222 0.07142857142857142 0  0.7777777777777778 0.07142857142857142 0  0.8333333333333334 0.07142857142857142 0  0.8888888888888888 0.07142857142857142 0  0.9444444444444444 0.07142857142857142 0  1 0.07142857142857142 0  0 0.08571428571428573 0  0.05555555555555555 0.08571428571428573 0  0.1111111111111111 0.08571428571428573 0  0.1666666666666667 0.08571428571428573 0  0.2222222222222222 0.08571428571428573 0  0.2777777777777778 0.08571428571428573 0  0.3333333333333333 0.08571428571428573 0  0.3888888888888889 0.08571428571428573 0  0.4444444444444444 0.08571428571428573 0  0.5 0.08571428571428573 0  0.5555555555555556 0.08571428571428573 0  0.6111111111111112 0.08571428571428573 0  0.6666666666666666 0.08571428571428573 0  0.7222222222222222 0.08571428571428573 0  0.7777777777777778 0.08571428571428573 0  0.8333333333333334 0.08571428571428573 0  0.8888888888888888 0.08571428571428573 0  0.9444444444444444 0.08571428571428573 0  1 0.08571428571428573 0  0 0.1 0  0.05555555555555555 0.1 0  0.1111111111111111 0.1 0  0.1666666666666667 0.1 0  0.2222222222222222 0.1 0  0.2777777777777778 0.1 0  0.3333333333333333 0.1 0  0.3888888888888889 0.1 0  0.4444444444444444 0.1 0  0.5 0.1 0  0.5555555555555556 0.1 0  0.6111111111111112 0.1 0  0.6666666666666666 0.1 0  0.7222222222222222 0.1 0  0.7777777777777778 0.1 0  0.8333333333333334 0.1 0  0.8888888888888888 0.1 0  0.9444444444444444 0.1 0  1 0.1 0  0 0 0.01  0.05555555555555555 0 0.01  0.1111111111111111 0 0.01  0.1666666666666667 0 0.01  0.2222222222222222 0 0.01  0.2777777777777778 0 0.01  0.3333333333333333 0 0.01  0.3888888888888889 0 0.01  0.4444444444444444 0 0.01  0.5 0 0.01  0.5555555555555556 0 0.01  0.6111111111111112 0 0.01  0.6666666666666666 0 0.01  0.7222222222222222 0 0.01  0.7777777777777778 0 0.01  0.8333333333333334 0 0.01  0.8888888888888888 0 0.01  0.9444444444444444 0 0.01  1 0 0.01  0 0.01428571428571429 0.01  0.05555555555555555 0.01428571428571429 0.01  0.1111111111111111 0.01428571428571429 0.01  0.1666666666666667 0.01428571428571429 0.01  0.2222222222222222 0.01428571428571429 0.01  0.2777777777777778 0.01428571428571429 0.01  0.3333333333333333 0.01428571428571429 0.01  0.3888888888888889 0.01428571428571429 0.01  0.4444444444444444 0.01428571428571429 0.01  0.5 0.01428571428571429 0.01  0.5555555555555556 0.01428571428571429 0.01  0.6111111111111112 0.01428571428571429 0.01  0.6666666666666666 0.01428571428571429 0.01  0.7222222222222222 0.01428571428571429 0.01  0.7777777777777778 0.01428571428571429 0.01  0.8333333333333334 0.01428571428571429 0.01  0.8888888888888888 0.01428571428571429 0.01  0.9444444444444444 0.01428571428571429 0.01  1 0.01428571428571429 0.01  0 0.02857142857142857 0.01  0.05555555555555555 0.02857142857142857 0.01  0.1111111111111111 0.02857142857142857 0.01  0.1666666666666667 0.02857142857142857 0.01  0.2222222222222222 0.02857142857142857 0.01  0.2777777777777778 0.02857142857142857 0.01  0.3333333333333333 0.02857142857142857 0.01  0.3888888888888889 0.02857142857142857 0.01  0.4444444444444444 0.02857142857142857 0.01  0.5 0.02857142857142857 0.01  0.5555555555555556 0.02857142857142857 0.01  0.6111111111111112 0.02857142857142857 0.01  0.6666666666666666 0.02857142857142857 0.01  0.7222222222222222 0.02857142857142857 0.01  0.7777777777777778 0.02857142857142857 0.01  0.8333333333333334 0.02857142857142857 0.01  0.8888888888888888 0.02857142857142857 0.01  0.9444444444444444 0.02857142857142857 0.01  1 0.02857142857142857 0.01  0 0.04285714285714286 0.01  0.05555555555555555 0.04285714285714286 0.01  0.1111111111111111 0.04285714285714286 0.01  0.1666666666666667 0.04285714285714286 0.01  0.2222222222222222 0.04285714285714286 0.01  0.2777777777777778 0.04285714285714286 0.01  0.3333333333333333 0.04285714285714286 0.01  0.3888888888888889 0.04285714285714286 0.01  0.4444444444444444 0.04285714285714286 0.01  0.5 0.04285714285714286 0.01  0.5555555555555556 0.04285714285714286 0.01  0.6111111111111112 0.04285714285714286 0.01  0.6666666666666666 0.04285714285714286 0.01  0.7222222222222222 0.04285714285714286 0.01  0.7777777777777778 0.04285714285714286 0.01  0.8333333333333334 0.04285714285714286 0.01  0.8888888888888888 0.04285714285714286 0.01  0.9444444444444444 0.04285714285714286 0.01  1 0.04285714285714286 0.01  0 0.05714285714285715 0.01  0.05555555555555555 0.05714285714285715 0.01  0.1111111111111111 0.05714285714285715 0.01  0.1666666666666667 0.05714285714285715 0.01  0.2222222222222222 0.05714285714285715 0.01  0.2777777777777778 0.05714285714285715 0.01  0.3333333333333333 0.05714285714285715 0.01  0.3888888888888889 0.05714285714285715 0.01  0.4444444444444444 0.05714285714285715 0.01  0.5 0.05714285714285715 0.01  0.5555555555555556 0.05714285714285715 0.01  0.6111111111111112 0.05714285714285715 0.01  0.6666666666666666 0.05714285714285715 0.01  0.7222222222222222 0.05714285714285715 0.01  0.7777777777777778 0.05714285714285715 0.01  0.8333333333333334 0.05714285714285715 0.01  0.8888888888888888 0.05714285714285715 0.01  0.9444444444444444 0.05714285714285715 0.01  1 0.05714285714285715 0.01  0 0.07142857142857142 0.01  0.05555555555555555 0.07142857142857142 0.01  0.1111111111111111 0.07142857142857142 0.01  0.1666666666666667 0.07142857142857142 0.01  0.2222222222222222 0.07142857142857142 0.01  0.2777777777777778 0.07142857142857142 0.01  0.3333333333333333 0.07142857142857142 0.01  0.3888888888888889 0.07142857142857142 0.01  0.4444444444444444 0.07142857142857142 0.01  0.5 0.07142857142857142 0.01  0.5555555555555556 0.07142857142857142 0.01  0.6111111111111112 0.07142857142857142 0.01  0.6666666666666666 0.07142857142857142 0.01  0.7222222222222222 0.07142857142857142 0.01  0.7777777777777778 0.07142857142857142 0.01  0.8333333333333334 0.07142857142857142 0.01  0.8888888888888888 0.07142857142857142 0.01  
[...]
<PointData  Vectors="f_33"> 
<DataArray  type="Float64"  Name="f_33"  NumberOfComponents="3" format="ascii">0.0000000000000000e+00 0.0000000000000000e+00 0.0000000000000000e+00  1.8351440088807014e-03 1.0580923732679774e-04 2.6556664007582800e-03  3.4233557612439371e-03 -1.1408219795461709e-04 1.0180580254726951e-02  4.8719068537418477e-03 -4.6867138615500325e-04 2.2230122746348262e-02  6.1831312750657034e-03 -9.2497664336137089e-04 3.8372308304889156e-02  7.3592219843041252e-03 -1.4651901067604162e-03 5.8198078382861049e-02  8.4020041671634214e-03 -2.0770486443170634e-03 8.1307170650574731e-02  9.3141857423163932e-03 -2.7502864401387759e-03 1.0730753632574136e-01  1.0099550542223544e-02 -3.4755413545102779e-03 1.3581725999795896e-01  1.0763019847022893e-02 -4.2440227464185815e-03 1.6646736350035449e-01  1.1310717802834660e-02 -5.0474483922364763e-03 1.9890507858047751e-01  1.1750038653521269e-02 -5.8780807892289209e-03 2.3279743518910215e-01  1.2089706860832579e-02 -6.7288022304274036e-03 2.6783508339605039e-01  1.2339826717115192e-02 -7.5932062018534722e-03 3.0373629411515524e-01  1.2511920983593196e-02 -8.4656967361703677e-03 3.4025109645400459e-01  1.2618960050784375e-02 -9.3415932478061164e-03 3.7716551693835770e-01  1.2675391961336791e-02 -1.0217240245323269e-02 4.1430589356643088e-01  1.2697205874122331e-02 -1.1090114231589636e-02 4.5154328713108205e-01  1.2701875413770975e-02 -1.1959016116271932e-02 4.8879846257824849e-01  0.0000000000000000e+00 0.0000000000000000e+00 0.0000000000000000e+00  1.7547665270679774e-03 1.5313164372004781e-05 2.7340232334116020e-03  3.3836490260331083e-03 -1.9422786566156483e-04 1.0236088221335534e-02  4.8670863865970517e-03 -5.4116948453582692e-04 2.2230586081707599e-02  6.2107662901931407e-03 -9.9008774404403619e-04 3.8312003584425283e-02  7.4167040520837198e-03 -1.5230421936412543e-03 5.8078550717133831e-02  8.4867333504836367e-03 -2.1277885487612233e-03 8.1132394846065353e-02  9.4235787970075348e-03 -2.7941142478061709e-03 1.0708235420844323e-01  1.0231036570742815e-02 -3.5127176501602952e-03 1.3554682491380099e-01  1.0914044610414514e-02 -4.2748725296712460e-03 1.6615691594975965e-01  1.1478755990643788e-02 -5.0723648545352926e-03 1.9855983886638678e-01  1.1932610779297444e-02 -5.8975287240024057e-03 2.3242253719520981e-01  1.2284398995735047e-02 -6.7433208473854341e-03 2.6743552160747658e-01  1.2544312250714085e-02 -7.6034112659953863e-03 3.0331687359324755e-01  1.2723983958129705e-02 -8.4722819356249021e-03 3.3981638184251861e-01  1.2836519035616232e-02 -9.3453306161044251e-03 3.7671977810874457e-01  1.2896519807955979e-02 -1.0218979445358474e-02 4.1385304318083627e-01  1.2920155253184601e-02 -1.1090772480099242e-02 4.5108678952915016e-01  1.2925435990328644e-02 -1.1959353936218506e-02 4.8834111714497241e-01  0.0000000000000000e+00 0.0000000000000000e+00 0.0000000000000000e+00  1.7520382128571380e-03 -5.3893905891273108e-05 2.7651520290389179e-03  3.4001001769562627e-03 -2.7278347252822333e-04 1.0237389318476051e-02  4.9103658277115398e-03 -6.1713182042571276e-04 2.2178955632864913e-02  6.2805096052031949e-03 -1.0600608612011462e-03 3.8204101116740004e-02  7.5110249135385233e-03 -1.5859329457620769e-03 5.7916412544085007e-02  8.6033748549007114e-03 -2.1833340568039703e-03 8.0920045578827246e-02  9.5601962402362805e-03 -2.8423732028660777e-03 1.0682454514275311e-01  1.0385286738245470e-02 -3.5539028462839672e-03 1.3524854589708388e-01  1.1083625812547406e-02 -4.3092968280367882e-03 1.6582318844226926e-01  1.1661435415829509e-02 -5.1004246354727492e-03 1.9819561234314176e-01  1.2126248365460871e-02 -5.9197000208153277e-03 2.3203262270243485e-01  1.2486970711841993e-02 -6.7601596136013442e-03 2.6702453753290561e-01  1.2753933795205560e-02 -7.6155546807449908e-03 3.0288919437766759e-01  1.2938935101109779e-02 -8.4804494258814804e-03 3.3937608621932164e-01  1.3055267840029708e-02 -9.3503236329942011e-03 3.7627059527679746e-01  1.3117742199446149e-02 -1.0221679806744830e-02 4.1339829451955917e-01  1.3142742367190994e-02 -1.1092141014245143e-02 4.5062931630660230e-01  1.3148538835955006e-02 -1.1960319149112978e-02 4.8788312722337346e-01  0.0000000000000000e+00 0.0000000000000000e+00 0.0000000000000000e+00  1.7620189633554750e-03 -1.1381961877583662e-04 2.7566918447909940e-03  3.4293497797975333e-03 -3.4889970392403615e-04 1.0182653784630138e-02  4.9655386184213916e-03 -6.9462021606078782e-04 2.2070807494494093e-02  6.3611464768826521e-03 -1.1329072176630001e-03 3.8043301215608637e-02  7.6151145904457965e-03 -1.6520104642628716e-03 5.7706387232712548e-02  8.7286231424425053e-03 -2.2419820778971974e-03 8.0665218947606768e-02  9.7042686378688466e-03 -2.8935038319928938e-03 1.0652970067055680e-01  1.0545873583878663e-02 -3.5976782141693216e-03 1.3491854523760693e-01  1.1258474345201162e-02 -4.3460164969773450e-03 1.6546283344754703e-01  1.1848374776998263e-02 -5.1304873934074000e-03 1.9780956434482910e-01  1.2323212980311950e-02 -5.9435919881552571e-03 2.3162534284765401e-01  1.2692023659439262e-02 -6.7784515830137271e-03 2.6660023377421682e-01  1.2965290734204681e-02 -7.6289024077494201e-03 3.0245176970472087e-01  1.3154988869429424e-02 -8.4895943199181437e-03 3.3892908628025586e-01  1.3274613373459166e-02 -9.3560922468200469e-03 3.7581715491855949e-01  1.3339197736517054e-02 -1.0224981600070177e-02 4.1294108279040059e-01  1.3365349227211529e-02 -1.1093970807616567e-02 4.5017047295232532e-01  1.3371563850698183e-02 -1.1961760219714495e-02 4.8742412277792374e-01  0.0000000000000000e+00 0.0000000000000000e+00 0.0000000000000000e+00  1.7687518248702379e-03 -1.7254413139119212e-04 2.7117796009844043e-03  3.4595559287721183e-03 -4.2486981273807245e-04 1.0074545517837579e-02  5.0233623657452934e-03 -7.7346779173092617e-04 2.1906401006782188e-02  6.4449084340066536e-03 -1.2078115427311853e-03 3.7828953865573292e-02  7.7223249892205536e-03 -1.7203105632139345e-03 5.7447510424865809e-02  8.8568129937353444e-03 -2.3027767478000106e-03 8.0366886186428427e-02  9.8510389053789241e-03 -2.9466083154112014e-03 1.0619682910349855e-01  1.0708890086168066e-02 -3.6432195013028660e-03 1.3455590708679213e-01  1.1435475733586352e-02 -4.3842848627853341e-03 1.6507502439863636e-01  1.2037188889226868e-02 -5.1618836523393621e-03 1.9740096072122718e-01  1.2521777036553189e-02 -5.9686099576438207e-03 2.3120005457172327e-01  1.2898406521295621e-02 -6.7976733149494178e-03 2.6616205478662858e-01  1.3177716511403400e-02 -7.6429977585170516e-03 3.0200412650687958e-01  1.3371861536204390e-02 -8.4993215145318015e-03 3.3847498513219271e-01  1.3494542409388145e-02 -9.3622975405191957e-03 3.7535912850382125e-01  1.3561022838198513e-02 -1.0228596775525777e-02 4.1248113755919613e-01  1.3588144268098682e-02 -1.1096018153677776e-02 4.4971003119057240e-01  1.3594652954483765e-02 -1.1963446206690629e-02 4.8696392080598405e-01  0.0000000000000000e+00 0.0000000000000000e+00 0.0000000000000000e+00  1.7664371595516122e-03 -2.3693700995113497e-04 2.6287702302001410e-03  3.4850421267513219e-03 -5.0440652309191982e-04 9.9127321678196181e-03  5.0788666067777188e-03 -8.5502634840782228e-04 2.1685564267530648e-02  6.5273744503880505e-03 -1.2851036796824504e-03 3.7560707829974088e-02  7.8287489701943172e-03 -1.7907881886593815e-03 5.7139327393231187e-02  8.9845410068095204e-03 -2.3655372432362380e-03 8.0024572083411502e-02  9.9975922517452874e-03 -3.0014561716599371e-03 1.0582547741352061e-01  1.0871889872674550e-02 -3.6902779941075910e-03 1.3416021903092767e-01  1.1612627324524822e-02 -4.4238465718089461e-03 1.6465939654352593e-01  1.2226289377642452e-02 -5.1943557353068895e-03 1.9696948646746215e-01  1.2720731928768327e-02 -5.9944955786760783e-03 2.3075649247057631e-01  1.3105250632865086e-02 -6.8175664843675961e-03 2.6570978346348562e-01  1.3390637084239650e-02 -7.6575828313700462e-03 3.0154609389072112e-01  1.3589222728425046e-02 -8.5093739218721574e-03 3.3801365524353882e-01  1.3714911279834530e-02 -9.3686840723767751e-03 3.7489642774643872e-01  1.3783198613598188e-02 -1.0232273564462466e-02 4.1201840292973241e-01  1.3811175260412185e-02 -1.1098037020160798e-02 4.4924795783959304e-01  1.3817871564106236e-02 -1.1965114627923086e-02 4.8650251241912723e-01  0.0000000000000000e+00 0.0000000000000000e+00 0.0000000000000000e+00  1.7468700527178899e-03 -3.1295366168920255e-04 2.4997814932876841e-03  3.4962898083797356e-03 -5.9102692260901938e-04 9.6928854667805413e-03  5.1224371185158660e-03 -9.4099242861080460e-04 2.1406132189109559e-02  6.5993863866534866e-03 -1.3655263954300699e-03 3.7237145854952775e-02  7.9259967996376524e-03 -1.8637627799703994e-03 5.6780747933488758e-02  9.1043001965553979e-03 -2.4303953275815302e-03 7.9637389239132828e-02  1.0137333055879641e-02 -3.0580866619250072e-03 1.0541491988269208e-01  1.1029180589318675e-02 -3.7388379257538872e-03 1.3373089974222774e-01  1.1785113051727705e-02 -4.4646458791320950e-03 1.6421550238649810e-01  1.2411696842454724e-02 -5.2278145368249672e-03 1.9651481866442286e-01  1.2916884700080795e-02 -6.0211300191710419e-03 2.3029444839061572e-01  1.3310089183263159e-02 -6.8379852831450712e-03 2.6524331536346701e-01  1.3602241419755688e-02 -7.6724875108568416e-03 3.0107765853715862e-01  1.3805836582564179e-02 -8.5195600036120367e-03 3.3754516007984864e-01  1.3934967734293091e-02 -9.3750422421611489e-03 3.7442917621950444e-01  1.4005352289761703e-02 -1.0235789237342054e-02 4.1155304152691730e-01  1.4034341350511945e-02 -1.1099792088741895e-02 4.4878442873494861e-01  1.4041239052569789e-02 -1.1966501282575034e-02 4.8604006478249878e-01  0.0000000000000000e+00 0.0000000000000000e+00 0.0000000000000000e+00  1.6746082410110717e-03 -3.9586845389107464e-04 2.3210388431800935e-03  3.4535382218442443e-03 -6.8017314958990888e-04 9.4153097918000077e-03  5.1150252282014062e-03 -1.0269121980205295e-03 2.1070719902553783e-02  6.6242977640973135e-03 -1.4448061699701160e-03 3.6861574626119650e-02  7.9806556837567974e-03 -1.9352746988785950e-03 5.6375183405124762e-02  9.1862091552355560e-03 -2.4937867871754563e-03 7.9208622507131649e-02  1.0243974462338783e-02 -3.1133630275045230e-03 1.0496822555672393e-01  1.1158024878021026e-02 -3.7861929924647673e-03 1.3327076763292620e-01  1.1933638697462334e-02 -4.5043946116912498e-03 1.6374589628461758e-01  1.2577409140913640e-02 -5.2603687306376880e-03 1.9603924319833962e-01  1.3097334755998155e-02 -6.0469911125044457e-03 2.2981593980270865e-01  1.3502894185056043e-02 -6.8577435258716036e-03 2.6476440249774913e-01  1.3805106388522295e-02 -7.6868231755203411e-03 3.0060031237180451e-01  1.4016577485790747e-02 -8.5292450331266728e-03 3.3707073914857139e-01  1.4151536117026967e-02 -9.3809420770581166e-03 3.7395837088104200e-01  1.4225862606908897e-02 -1.0238866961569849e-02 4.1108581832787144e-01  1.4257145140024456e-02 -1.1101093579101507e-02 4.4831995303359529e-01  1.4264791281304944e-02 -1.1967434361894399e-02 4.8557680899805339e-01  0.0000000000000000e+00 0.0000000000000000e+00 0.0000000000000000e+00  8.4047640728852793e-04 3.5859486320458117e-05 2.5780600951972885e-03  1.5934291975117695e-03 -1.6667076003580472e-04 1.0108862134735927e-02  2.2765633024792401e-03 -4.8034608826635428e-04 2.2164266096183334e-02  2.8954430840840541e-03 -8.9249370975216715e-04 3.8312545680372442e-02  3.4512243250635656e-03 -1.3899655122105857e-03 5.8144457904071099e-02  3.9445851872569960e-03 -1.9620028646314498e-03 8.1259650268913533e-02  4.3766811183289945e-03 -2.5988842717939455e-03 1.0726600353150445e-01  4.7492188390950438e-03 -3.2914490680248142e-03 1.3578154332968281e-01  5.0644565765164970e-03 -4.0309681300579291e-03 1.6643723572533334e-01  5.3252214550973294e-03 -4.8091522298358306e-03 1.9888025571829013e-01  5.5349362651672509e-03 -5.6182132458172124e-03 2.3277757419704562e-01  5.6976462286178649e-03 -6.4509469992845596e-03 2.6781977972234333e-01  5.8180419911197752e-03 -7.3008260816753070e-03 3.0372507954079592e-01  5.9014778326818484e-03 -8.1620981927955638e-03 3.4024343731477952e-01  5.9539857401344513e-03 -9.0298883454806422e-03 3.7716081263952644e-01  5.9822901648715230e-03 -9.9003023179830354e-03 4.1430347439362070e-01  5.9938354164859303e-03 -1.0770512583428411e-02 4.5154240691961517e-01  5.9966552085151401e-03 -1.1638897007250166e-02 4.8879807478121351e-01  0.0000000000000000e+00 0.0000000000000000e+00 0.0000000000000000e+00  8.2738146233045709e-04 -2.0424716760473812e-05 2.6485009307036810e-03  1.6219816205159904e-03 -2.1223104580525437e-04 1.0163645892975698e-02  2.3340798928875930e-03 -5.2171808696356862e-04 2.2164688167352158e-02  2.9793800199230652e-03 -9.2977422100855528e-04 3.8252393606173468e-02  3.5589292770726393e-03 -1.4231862624935760e-03 5.8025112766921169e-02  4.0735253150966507e-03 -1.9912203580149724e-03 8.1085035298573971e-02  4.5244109073073590e-03 -2.6241962004623764e-03 1.0704094431807948e-01  4.9133629951320550e-03 -3.3129918835661160e-03 1.3551118996577977e-01  5.2427125637749235e-03 -4.0489161419307220e-03 1.6612683071488288e-01  5.5153733435544215e-03 -4.8237184971079167e-03 1.9853502377368373e-01  5.7348739695157365e-03 -5.6296510667224551e-03 2.3240265494849632e-01  5.9053874968983807e-03 -6.4595513794204812e-03 2.6742017433563964e-01  6.0317560579221333e-03 -7.3069349515321865e-03 3.0330560054120898e-01  6.1195102251746618e-03 -8.1660932900042022e-03 3.3980865755486911e-01  6.1748833719656830e-03 -9.0321958360136626e-03 3.7671501106646854e-01  6.2048239007307443e-03 -9.9013937412803180e-03 4.1385057429687161e-01  6.2170296772304833e-03 -1.0770904911291080e-02 4.5108588330601712e-01  6.2200615921435770e-03 -1.1639038266064225e-02 4.8834081480569191e-01  0.0000000000000000e+00 0.0000000000000000e+00 0.0000000000000000e+00  8.3782026035790556e-04 -5.8173760707873138e-05 2.6767900126685455e-03  1.6569192380331641e-03 -2.5311297977296073e-04 1.0161552768078319e-02  2.3962819172229665e-03 -5.6092669338564480e-04 2.2111333768390827e-02  3.0668481148428046e-03 -9.6575387644774269e-04 3.8143399831893944e-02  3.6693680225185132e-03 -1.4554819845960163e-03 5.7862168024208287e-02  4.2045549415115910e-03 -2.0197292533814743e-03 8.0872039506141982e-02  4.6736671317398615e-03 -2.6489584428693231e-03 1.0678260342147335e-01  5.0785299289434795e-03 -3.3341192564803578e-03 1.3521247548310625e-01  5.4215433294392676e-03 -4.0665691338740992e-03 1.6579275485556533e-01  5.7057107757463943e-03 -4.8380994749302741e-03 1.9817052949771863e-01  5.9346725165827464e-03 -5.6410028871652943e-03 2.3201254719838207e-01  6.1127362261882085e-03 -6.4681577497201466e-03 2.6700906492556725e-01  6.2449026398595829e-03 -7.3131211972782975e-03 3.0287785651625354e-01  6.3368857148433898e-03 -8.1702269501011653e-03 3.3936834926512333e-01  6.3951269901611060e-03 -9.0346867404057212e-03 3.7626585826731623e-01  6.4268043926304745e-03 -9.9026944597432522e-03 4.1339588814665107e-01  6.4398619144652213e-03 -1.0771516244366026e-02 4.5062849487662160e-01  6.4432067299053054e-03 -1.1639452818847276e-02 4.8788294427605022e-01  0.0000000000000000e+00 0.0000000000000000e+00 0.0000000000000000e+00  8.5513921696478586e-04 -8.9933322388780772e-05 2.6661729363700935e-03  1.6976241750161262e-03 -2.9151694306281010e-04 1.0104254813931136e-02  2.4633609482184273e-03 -5.9969207867090711e-04 2.2001355789607477e-02  3.1586628494569770e-03 -1.0021501948300413e-03 3.7981277676240877e-02  3.7836388777485672e-03 -1.4884631676135253e-03 5.7651103521669834e-02  4.3389052269843182e-03 -2.0489797126756124e-03 8.0616353191046528e-02  4.8257466843946656e-03 -2.6744425226597575e-03 1.0648703540554988e-01  5.2460439205674050e-03 -3.3559218809471260e-03 1.3488186846354511e-01  5.6022716961812826e-03 -4.0848417545221146e-03 1.6543190047984829e-01  5.8975286875523822e-03 -4.8530422850131148e-03 1.9778408150055832e-01  6.1355723341037565e-03 -5.6528594486190816e-03 2.3160495938895945e-01  6.3208506148331109e-03 -6.4772138854726925e-03 2.6658453726797027e-01  6.4585286398499663e-03 -7.3197052185064995e-03 3.0244028299674475e-01  6.5545095857875218e-03 -8.1747100057543553e-03 3.3892126535375328e-01  6.6154493794409255e-03 -9.0374824884805072e-03 3.7581238739429551e-01  6.6487627004548121e-03 -9.9042586156845511e-03 4.1293868716320586e-01  6.6626390582804739e-03 -1.0772355289026125e-02 4.5016969305188792e-01  6.6662687536091650e-03 -1.1640137099992133e-02 4.8742401562388199e-01  0.0000000000000000e+00 0.0000000000000000e+00 0.0000000000000000e+00  8.7143248141523212e-04 -1.2143231098339171e-04 2.6204105846066019e-03  1.7393262114558021e-03 -3.3005346596235764e-04 9.9945008951137435e-03  2.5319045458676217e-03 -6.3940463682822806e-04 2.1835367182410359e-02  3.2520724386864053e-03 -1.0398442077433471e-03 3.7765632096969010e-02  3.8994435439358667e-03 -1.5228093068228473e-03 5.7391148354982206e-02  4.4746680915687207e-03 -2.0795307144061042e-03 8.0317103522038566e-02  4.9790978016548337e-03 -2.7011117331912264e-03 1.0615337900112433e-01  5.4146826032851689e-03 -3.3787769828541956e-03 1.3451856302079870e-01  5.7839778681184313e-03 -4.1040309096334717e-03 1.6504353286310822e-01  6.0901805926569892e-03 -4.8687685709609798e-03 1.9737502080009495e-01  6.3371674497554225e-03 -5.6653725366636173e-03 2.3117930819005345e-01  6.5295283944156058e-03 -6.4868078459220874e-03 2.6614608138499535e-01  6.6725944726583443e-03 -7.3267183744786957e-03 3.0199243973585693e-01  6.7724596546910095e-03 -8.1795251876405056e-03 3.3846703059716982e-01  6.8359963837775145e-03 -9.0405266140864120e-03 3.7535428219492267e-01  6.8708610434248512e-03 -9.9060013580814267e-03 4.1247870543179804e-01  6.8854943327993929e-03 -1.0773319173681848e-02 4.4970924695913500e-01  6.8893508609859967e-03 -1.1640970869391986e-02 4.8696383825446454e-01  0.0000000000000000e+00 0.0000000000000000e+00 0.0000000000000000e+00  8.8350211605777221e-04 -1.5701111696063676e-04 2.5384897600921816e-03  1.7787730027575062e-03 -3.7127063124179661e-04 9.8322854495657541e-03  2.5992027568234022e-03 -6.8135867160960004e-04 2.1613679533010969e-02  3.3446620131350373e-03 -1.0795628775044064e-03 3.7496537472995320e-02  4.0146502629071941e-03 -1.5590064321844670e-03 5.7082197273665508e-02  4.6099950177468886e-03 -2.1117499437577521e-03 7.9974106836040421e-02  5.1321496332948843e-03 -2.7292580070172366e-03 1.0578142568155632e-01  5.5831417446321066e-03 -3.4029165516242517e-03 1.3412235004525547e-01  5.9656094073802478e-03 -4.1243153875581556e-03 1.6462745311406099e-01  6.2828477704761111e-03 -4.8854077127052980e-03 1.9694316395229028e-01  6.5388516115429274e-03 -5.6786251595095571e-03 2.3073542863283036e-01  6.7383513277521770e-03 -6.4969793698087764e-03 2.6569355294505193e-01  6.8868422133406019e-03 -7.3341606297795715e-03 3.0153420481392929e-01  6.9906073085440855e-03 -8.1846367651856027e-03 3.3800554692849588e-01  7.0567341860885450e-03 -9.0437527283386901e-03 3.7489146907554693e-01  7.0931232893090166e-03 -9.9078319977082378e-03 4.1201589175713121e-01  7.1084778574762829e-03 -1.0774297861730104e-02 4.4924712213961315e-01  7.1125082806670912e-03 -1.1641814544049988e-02 4.8650239900278203e-01  0.0000000000000000e+00 0.0000000000000000e+00 0.0000000000000000e+00  8.8892908267198720e-04 -2.0191829921720284e-04 2.4133771623848603e-03  1.8124445902420873e-03 -4.1861485734870775e-04 9.6138484006878418e-03  2.6615114015323986e-03 -7.2783270221217456e-04 2.1334735819358869e-02  3.4327670792108551e-03 -1.1229337935230856e-03 3.7173139720646696e-02  4.1258611729876708e-03 -1.5983216386194134e-03 5.6723643331965383e-02  4.7418282144346844e-03 -2.1466761184049800e-03 7.9586879980293443e-02  5.2822069049653780e-03 -2.7597462279661516e-03 1.0537078160883355e-01  5.7490897899335298e-03 -3.4290555831623919e-03 1.3369291383505552e-01  6.1451895695187738e-03 -4.1462733939622654e-03 1.6418341880887455e-01  6.4738933140984041e-03 -4.9034109799838358e-03 1.9648833846383196e-01  6.7393081305509115e-03 -5.6929512001021431e-03 2.3027321481840923e-01  6.9462991240729034e-03 -6.5079553510911216e-03 2.6522690879912242e-01  7.1005200430472679e-03 -7.3421636013795465e-03 3.0106559325350690e-01  7.2084371370566428e-03 -8.1900