<?xml version="1.0"?>
<VTKFile type="UnstructuredGrid"  version="0.1"  >
<UnstructuredGrid>
<Piece  NumberOfPoints="760" NumberOfCells="3024">
<Points>
<DataArray  type="Float64"  NumberOfComponents="3"  format="ascii">0 0 0  0.05555555555555555 0 0  0.1111111111111111 0 0  0.1666666666666667 0 0  0.2222222222222222 0 0  0.2777777777777778 0 0  0.3333333333333333 0 0  0.3888888888888889 0 0  0.4444444444444444 0 0  0.5 0 0  0.5555555555555556 0 0  0.6111111111111112 0 0  0.6666666666666666 0 0  0.7222222222222222 0 0  0.7777777777777778 0 0  0.8333333333333334 0 0  0.8888888888888888 0 0  0.9444444444444444 0 0  1 0 0  0 0.01428571428571429 0  0.05555555555555555 0.01428571428571429 0  0.1111111111111111 0.01428571428571429 0  0.1666666666666667 0.01428571428571429 0  0.2222222222222222 0.01428571428571429 0  0.2777777777777778 0.01428571428571429 0  0.3333333333333333 0.01428571428571429 0  0.3888888888888889 0.01428571428571429 0  0.4444444444444444 0.01428571428571429 0  0.5 0.01428571428571429 0  0.5555555555555556 0.01428571428571429 0  0.6111111111111112 0.01428571428571429 0  0.6666666666666666 0.01428571428571429 0  0.7222222222222222 0.01428571428571429 0  0.7777777777777778 0.01428571428571429 0  0.8333333333333334 0.01428571428571429 0  0.8888888888888888 0.01428571428571429 0  0.9444444444444444 0.01428571428571429 0  1 0.01428571428571429 0  0 0.02857142857142857 0  0.05555555555555555 0.02857142857142857 0  0.1111111111111111 0.02857142857142857 0  0.1666666666666667 0.02857142857142857 0  0.2222222222222222 0.02857142857142857 0  0.2777777777777778 0.02857142857142857 0  0.3333333333333333 0.02857142857142857 0  0.3888888888888889 0.02857142857142857 0  0.4444444444444444 0.02857142857142857 0  0.5 0.02857142857142857 0  0.5555555555555556 0.02857142857142857 0  0.6111111111111112 0.02857142857142857 0  0.6666666666666666 0.02857142857142857 0  0.7222222222222222 0.02857142857142857 0  0.7777777777777778 0.02857142857142857 0  0.8333333333333334 0.02857142857142857 0  0.8888888888888888 0.02857142857142857 0  0.9444444444444444 0.02857142857142857 0  1 0.02857142857142857 0  0 0.04285714285714286 0  0.05555555555555555 0.04285714285714286 0  0.1111111111111111 0.04285714285714286 0  0.1666666666666667 0.04285714285714286 0  0.2222222222222222 0.04285714285714286 0  0.2777777777777778 0.04285714285714286 0  0.3333333333333333 0.04285714285714286 0  0.3888888888888889 0.04285714285714286 0  0.4444444444444444 0.04285714285714286 0  0.5 0.04285714285714286 0  0.5555555555555556 0.04285714285714286 0  0.6111111111111112 0.04285714285714286 0  0.6666666666666666 0.04285714285714286 0  0.7222222222222222 0.04285714285714286 0  0.7777777777777778 0.04285714285714286 0  0.8333333333333334 0.04285714285714286 0  0.8888888888888888 0.04285714285714286 0  0.9444444444444444 0.04285714285714286 0  1 0.04285714285714286 0  0 0.05714285714285715 0  0.05555555555555555 0.05714285714285715 0  0.1111111111111111 0.05714285714285715 0  0.1666666666666667 0.05714285714285715 0  0.2222222222222222 0.05714285714285715 0  0.2777777777777778 0.05714285714285715 0  0.3333333333333333 0.05714285714285715 0  0.3888888888888889 0.05714285714285715 0  0.4444444444444444 0.05714285714285715 0  0.5 0.05714285714285715 0  0.5555555555555556 0.05714285714285715 0  0.6111111111111112 0.05714285714285715 0  0.6666666666666666 0.05714285714285715 0  0.7222222222222222 0.05714285714285715 0  0.7777777777777778 0.05714285714285715 0  0.8333333333333334 0.05714285714285715 0  0.8888888888888888 0.05714285714285715 0  0.9444444444444444 0.05714285714285715 0  1 0.05714285714285715 0  0 0.07142857142857142 0  0.05555555555555555 0.07142857142857142 0  0.1111111111111111 0.07142857142857142 0  0.1666666666666667 0.07142857142857142 0  0.2222222222222222 0.07142857142857142 0  0.2777777777777778 0.07142857142857142 0  0.3333333333333333 0.07142857142857142 0  0.3888888888888889 0.07142857142857142 0  0.4444444444444444 0.07142857142857142 0  0.5 0.07142857142857142 0  0.5555555555555556 0.07142857142857142 0  0.6111111111111112 0.07142857142857142 0  0.6666666666666666 0.07142857142857142 0  0.7222222222222222 0.07142857142857142 0  0.7777777777777778 0.07142857142857142 0  0.8333333333333334 0.07142857142857142 0  0.8888888888888888 0.07142857142857142 0  0.9444444444444444 0.07142857142857142 0  1 0.07142857142857142 0  0 0.08571428571428573 0  0.05555555555555555 0.08571428571428573 0  0.1111111111111111 0.08571428571428573 0  0.1666666666666667 0.08571428571428573 0  0.2222222222222222 0.08571428571428573 0  0.2777777777777778 0.08571428571428573 0  0.3333333333333333 0.08571428571428573 0  0.3888888888888889 0.08571428571428573 0  0.4444444444444444 0.08571428571428573 0  0.5 0.08571428571428573 0  0.5555555555555556 0.08571428571428573 0  0.6111111111111112 0.08571428571428573 0  0.6666666666666666 0.08571428571428573 0  0.7222222222222222 0.08571428571428573 0  0.7777777777777778 0.08571428571428573 0  0.8333333333333334 0.08571428571428573 0  0.8888888888888888 0.08571428571428573 0  0.9444444444444444 0.08571428571428573 0  1 0.08571428571428573 0  0 0.1 0  0.05555555555555555 0.1 0  0.1111111111111111 0.1 0  0.1666666666666667 0.1 0  0.2222222222222222 0.1 0  0.2777777777777778 0.1 0  0.3333333333333333 0.1 0  0.3888888888888889 0.1 0  0.4444444444444444 0.1 0  0.5 0.1 0  0.5555555555555556 0.1 0  0.6111111111111112 0.1 0  0.6666666666666666 0.1 0  0.7222222222222222 0.1 0  0.7777777777777778 0.1 0  0.8333333333333334 0.1 0  0.8888888888888888 0.1 0  0.9444444444444444 0.1 0  1 0.1 0  0 0 0.01  0.05555555555555555 0 0.01  0.1111111111111111 0 0.01  0.1666666666666667 0 0.01  0.2222222222222222 0 0.01  0.2777777777777778 0 0.01  0.3333333333333333 0 0.01  0.3888888888888889 0 0.01  0.4444444444444444 0 0.01  0.5 0 0.01  0.5555555555555556 0 0.01  0.6111111111111112 0 0.01  0.6666666666666666 0 0.01  0.7222222222222222 0 0.01  0.7777777777777778 0 0.01  0.8333333333333334 0 0.01  0.8888888888888888 0 0.01  0.9444444444444444 0 0.01  1 0 0.01  0 0.01428571428571429 0.01  0.05555555555555555 0.01428571428571429 0.01  0.1111111111111111 0.01428571428571429 0.01  0.1666666666666667 0.01428571428571429 0.01  0.2222222222222222 0.01428571428571429 0.01  0.2777777777777778 0.01428571428571429 0.01  0.3333333333333333 0.01428571428571429 0.01  0.3888888888888889 0.01428571428571429 0.01  0.4444444444444444 0.01428571428571429 0.01  0.5 0.01428571428571429 0.01  0.5555555555555556 0.01428571428571429 0.01  0.6111111111111112 0.01428571428571429 0.01  0.6666666666666666 0.01428571428571429 0.01  0.7222222222222222 0.01428571428571429 0.01  0.7777777777777778 0.01428571428571429 0.01  0.8333333333333334 0.01428571428571429 0.01  0.8888888888888888 0.01428571428571429 0.01  0.9444444444444444 0.01428571428571429 0.01  1 0.01428571428571429 0.01  0 0.02857142857142857 0.01  0.05555555555555555 0.02857142857142857 0.01  0.1111111111111111 0.02857142857142857 0.01  0.1666666666666667 0.02857142857142857 0.01  0.2222222222222222 0.02857142857142857 0.01  0.2777777777777778 0.02857142857142857 0.01  0.3333333333333333 0.02857142857142857 0.01  0.3888888888888889 0.02857142857142857 0.01  0.4444444444444444 0.02857142857142857 0.01  0.5 0.02857142857142857 0.01  0.5555555555555556 0.02857142857142857 0.01  0.6111111111111112 0.02857142857142857 0.01  0.6666666666666666 0.02857142857142857 0.01  0.7222222222222222 0.02857142857142857 0.01  0.7777777777777778 0.02857142857142857 0.01  0.8333333333333334 0.02857142857142857 0.01  0.8888888888888888 0.02857142857142857 0.01  0.9444444444444444 0.02857142857142857 0.01  1 0.02857142857142857 0.01  0 0.04285714285714286 0.01  0.05555555555555555 0.04285714285714286 0.01  0.1111111111111111 0.04285714285714286 0.01  0.1666666666666667 0.04285714285714286 0.01  0.2222222222222222 0.04285714285714286 0.01  0.2777777777777778 0.04285714285714286 0.01  0.3333333333333333 0.04285714285714286 0.01  0.3888888888888889 0.04285714285714286 0.01  0.4444444444444444 0.04285714285714286 0.01  0.5 0.04285714285714286 0.01  0.5555555555555556 0.04285714285714286 0.01  0.6111111111111112 0.04285714285714286 0.01  0.6666666666666666 0.04285714285714286 0.01  0.7222222222222222 0.04285714285714286 0.01  0.7777777777777778 0.04285714285714286 0.01  0.8333333333333334 0.04285714285714286 0.01  0.8888888888888888 0.04285714285714286 0.01  0.9444444444444444 0.04285714285714286 0.01  1 0.04285714285714286 0.01  0 0.05714285714285715 0.01  0.05555555555555555 0.05714285714285715 0.01  0.1111111111111111 0.05714285714285715 0.01  0.1666666666666667 0.05714285714285715 0.01  0.2222222222222222 0.05714285714285715 0.01  0.2777777777777778 0.05714285714285715 0.01  0.3333333333333333 0.05714285714285715 0.01  0.3888888888888889 0.05714285714285715 0.01  0.4444444444444444 0.05714285714285715 0.01  0.5 0.05714285714285715 0.01  0.5555555555555556 0.05714285714285715 0.01  0.6111111111111112 0.05714285714285715 0.01  0.6666666666666666 0.05714285714285715 0.01  0.7222222222222222 0.05714285714285715 0.01  0.7777777777777778 0.05714285714285715 0.01  0.8333333333333334 0.05714285714285715 0.01  0.8888888888888888 0.05714285714285715 0.01  0.9444444444444444 0.05714285714285715 0.01  1 0.05714285714285715 0.01  0 0.07142857142857142 0.01  0.05555555555555555 0.07142857142857142 0.01  0.1111111111111111 0.07142857142857142 0.01  0.1666666666666667 0.07142857142857142 0.01  0.2222222222222222 0.07142857142857142 0.01  0.2777777777777778 0.07142857142857142 0.01  0.3333333333333333 0.07142857142857142 0.01  0.3888888888888889 0.07142857142857142 0.01  0.4444444444444444 0.07142857142857142 0.01  0.5 0.07142857142857142 0.01  0.5555555555555556 0.07142857142857142 0.01  0.6111111111111112 0.07142857142857142 0.01  0.6666666666666666 0.07142857142857142 0.01  0.7222222222222222 0.07142857142857142 0.01  0.7777777777777778 0.07142857142857142 0.01  0.8333333333333334 0.07142857142857142 0.01  0.8888888888888888 0.07142857142857142 0.01  
[...]
<PointData  Vectors="f_33"> 
<DataArray  type="Float64"  Name="f_33"  NumberOfComponents="3" format="ascii">0.0000000000000000e+00 0.0000000000000000e+00 0.0000000000000000e+00  3.0242247177371295e-03 1.4401969751873494e-04 4.4468441094310633e-03  5.6311274569110443e-03 -3.0091669897383349e-04 1.7031451566454660e-02  8.0007995756522596e-03 -1.0162358755733802e-03 3.7154785280045170e-02  1.0138229625058746e-02 -1.9426154434979465e-03 6.4075146911890452e-02  1.2047884456710014e-02 -3.0457444715000490e-03 9.7090969985339962e-02  1.3733748089677558e-02 -4.3006800286047326e-03 1.3551784138864847e-01  1.5201489564171240e-02 -5.6859810694641936e-03 1.7868830972261202e-01  1.6458745300491608e-02 -7.1819184011421323e-03 2.2595578375271422e-01  1.7515140718355728e-02 -8.7699586297576345e-03 2.7669971113291619e-01  1.8382298921409589e-02 -1.0432695336218534e-02 3.3033127409458313e-01  1.9073842192045429e-02 -1.2153941248373584e-02 3.8629930209893909e-01  1.9605378883512166e-02 -1.3918879235905752e-02 4.4409624349626980e-01  1.9994477113340306e-02 -1.5714234570991227e-02 5.0326410583841974e-01  2.0260630760467364e-02 -1.7528454894429727e-02 5.6340031598742057e-01  2.0425225163905054e-02 -1.9351894339445563e-02 6.2416348072654615e-01  2.0511522111230064e-02 -2.1177001074838595e-02 6.8527905366392283e-01  2.0544714468589215e-02 -2.2998496514675559e-02 7.4654499800535490e-01  2.0551788549776670e-02 -2.4813706454896674e-02 8.0783823387047315e-01  0.0000000000000000e+00 0.0000000000000000e+00 0.0000000000000000e+00  2.9044569815245328e-03 -3.9942835308668249e-06 4.5779847497118744e-03  5.5913922005855366e-03 -4.3143925322346361e-04 1.7124130020874411e-02  8.0308593017010300e-03 -1.1338524730818962e-03 3.7155144242398436e-02  1.0232920384012485e-02 -2.0478281470567268e-03 6.3973887823779968e-02  1.2201652898488602e-02 -3.1388198271449950e-03 9.6890983634296129e-02  1.3941054837244123e-02 -4.3819230515011768e-03 1.3522608331750441e-01  1.5456848063255285e-02 -5.7557943323676853e-03 1.7831316658832058e-01  1.6756731197112792e-02 -7.2408105080826448e-03 2.2550612700417277e-01  1.7850415653252887e-02 -8.8185455340376393e-03 2.7618450589762478e-01  1.8749647716315272e-02 -1.0471700764461633e-02 3.2975938601649213e-01  1.9468217089708854e-02 -1.2184196301247417e-02 3.8567937638542865e-01  2.0021947180579942e-02 -1.3941321169303559e-02 4.4343661052148975e-01  2.0428670338530130e-02 -1.5729904981463032e-02 5.0257269679125960e-01  2.0708194341786515e-02 -1.7538497467805565e-02 5.6268458242951980e-01  2.0882266830983973e-02 -1.9357552177036361e-02 6.2343031440716246e-01  2.0974551963648721e-02 -2.1179613746343490e-02 6.8453469953326984e-01  2.1010695633549965e-02 -2.2999484325960037e-02 7.4579492972623473e-01  2.1018723453439209e-02 -2.4814215422621341e-02 8.0708684020064347e-01  0.0000000000000000e+00 0.0000000000000000e+00 0.0000000000000000e+00  2.9128848182433499e-03 -1.1744812064245752e-04 4.6309007138805904e-03  5.6441340230458234e-03 -5.6016501410390712e-04 1.7126881293490315e-02  8.1397403435038776e-03 -1.2580920332545106e-03 3.7069331967153993e-02  1.0396262830436697e-02 -2.1619115628217856e-03 6.3794158385439212e-02  1.2415152750059812e-02 -3.2409627243395259e-03 9.6621019260361582e-02  1.4199795702406455e-02 -4.4717447920059423e-03 1.3487288232897501e-01  1.5755798480053283e-02 -5.8334631874392339e-03 1.7788491557320893e-01  1.7090907512328141e-02 -7.3067590332236742e-03 2.2501137024967405e-01  1.8214961560832667e-02 -8.8733749197479513e-03 2.7563178689422829e-01  1.9139892367192560e-02 -1.0516147261484967e-02 3.2915706444699766e-01  1.9879726686052340e-02 -1.2219118553416964e-02 3.8503551088547766e-01  2.0450574475367619e-02 -1.3967694543924077e-02 4.4275886623166355e-01  2.0870603469278395e-02 -1.5748818104220939e-02 5.0186826262624828e-01  2.1160005285747560e-02 -1.7551149123327923e-02 5.6196009252041401e-01  2.1340958353408431e-02 -1.9365247373749860e-02 6.2269177107877471e-01  2.1437596145829067e-02 -2.1183759245602549e-02 6.8378739407969458e-01  2.1476052818832369e-02 -2.3001587214841961e-02 7.4504334665214234e-01  2.1484923377924695e-02 -2.4815701681023598e-02 8.0633444033500423e-01  0.0000000000000000e+00 0.0000000000000000e+00 0.0000000000000000e+00  2.9418712794429727e-03 -2.1640903908408927e-04 4.6178888888269059e-03  5.7177394694846112e-03 -6.8575755120855108e-04 1.7036456754544026e-02  8.2679966912965405e-03 -1.3857436918627043e-03 3.6889761062661293e-02  1.0577274403481968e-02 -2.2815739420010968e-03 6.3526953676920350e-02  1.2644411561601477e-02 -3.3491144771842841e-03 9.6272153686721901e-02  1.4472334211758699e-02 -4.5673406207291378e-03 1.3444997801671393e-01  1.6066616051822052e-02 -5.9164289561871031e-03 1.7739615979016801e-01  1.7435091866114041e-02 -7.3774465008502339e-03 2.2446503383307431e-01  1.8587754068846721e-02 -8.9323681020293862e-03 2.7503598473016438e-01  1.9536741233339486e-02 -1.0564192634096555e-02 3.2851961489422954e-01  2.0296336672028834e-02 -1.2257098902476025e-02 3.8436383432230009e-01  2.0882955515526443e-02 -1.3996618289135478e-02 4.4205989908609755e-01  2.1315118927464127e-02 -1.5769813988328031e-02 5.0114837798279177e-01  2.1613420000923211e-02 -1.7565462397565380e-02 5.6122502408309860e-01  2.1800485999837825e-02 -1.9374235244681175e-02 6.2194653939015243e-01  2.1900939574433648e-02 -2.1188885274456642e-02 6.8303623392302715e-01  2.1941408138733944e-02 -2.3004425841139205e-02 7.4428962447998426e-01  2.1950986260272403e-02 -2.4817939852932295e-02 8.0558045709091619e-01  0.0000000000000000e+00 0.0000000000000000e+00 0.0000000000000000e+00  2.9652079828625644e-03 -3.1432909603379313e-04 4.5441344241369834e-03  5.7928016572369734e-03 -8.1205510111197459e-04 1.6857261604318486e-02  8.4005922167303387e-03 -1.5165184439013377e-03 3.6616828058022861e-02  1.0763413996285835e-02 -2.4054373867989707e-03 6.3171153121764176e-02  1.2878777312832360e-02 -3.4616515606590952e-03 9.5842747815336402e-02  1.4749666772728220e-02 -4.6671050973682137e-03 1.3395563049210690e-01  1.6381808638649110e-02 -6.0031877887413657e-03 1.7684522807292163e-01  1.7783193806713189e-02 -7.4514968214468482e-03 2.2386557984091013e-01  1.8963995865944380e-02 -8.9942835336199074e-03 2.7439571678151614e-01  1.9936573204914054e-02 -1.0614729156256823e-02 3.2784581466423246e-01  2.0715473171282278e-02 -1.2297159198140117e-02 3.8366328096719865e-01  2.1317421442886581e-02 -1.4027237439215981e-02 4.4133879347993521e-01  2.1761297164701252e-02 -1.5792152826712588e-02 5.0041226803328731e-01  2.2068099149818783e-02 -1.7580803329619064e-02 5.6047873160584050e-01  2.2260908478149929e-02 -1.9383977787432258e-02 6.2119408924632014e-01  2.2364846976319432e-02 -2.1194539663458398e-02 6.8228078661526836e-01  2.2407050811395771e-02 -2.3007620966077984e-02 7.4353340193574902e-01  2.2417146579029063e-02 -2.4820573727358384e-02 8.0482460281684198e-01  0.0000000000000000e+00 0.0000000000000000e+00 0.0000000000000000e+00  2.9735324067654192e-03 -4.2268427749171699e-04 4.4068709343158957e-03  5.8601335243756896e-03 -9.4526808395548794e-04 1.6588711270979908e-02  8.5295078470023575e-03 -1.6526720933023990e-03 3.6250232067204180e-02  1.0947593412799538e-02 -2.5340398860501214e-03 6.2726160065580655e-02  1.3112030955326304e-02 -3.5784819985749485e-03 9.5332036022907060e-02  1.5026420941676414e-02 -4.7707179349947030e-03 1.3338904386466649e-01  1.6696818622860096e-02 -6.0933360616713603e-03 1.7623136516924387e-01  1.8131429614590376e-02 -7.5284766563655913e-03 2.2321232392170484e-01  1.9340628500518424e-02 -9.0586786916275561e-03 2.7371038070446424e-01  2.0336998853803016e-02 -1.0667313477580475e-02 3.2713514613140282e-01  2.1135351841021645e-02 -1.2338859068528810e-02 3.8293341682897875e-01  2.1752721389824616e-02 -1.4059116654611415e-02 4.4059519602049180e-01  2.2208341619247816e-02 -1.5815405636801814e-02 4.9965965567961151e-01  2.2523613847311899e-02 -1.7596750316965597e-02 5.5972100881294407e-01  2.2722070154389803e-02 -1.9394062148640086e-02 6.2043427786160710e-01  2.2829335724084302e-02 -2.1200321172821425e-02 6.8152096149202823e-01  2.2873081459297753e-02 -2.3010784968156433e-02 7.4277462534119965e-01  2.2883521061704232e-02 -2.4823191752698575e-02 8.0406686267991223e-01  0.0000000000000000e+00 0.0000000000000000e+00 0.0000000000000000e+00  2.9534798665396718e-03 -5.5146756571095652e-04 4.1928950493275649e-03  5.9041669507106072e-03 -1.0912848578915890e-03 1.6223531655980838e-02  8.6390192219500984e-03 -1.7970443012665992e-03 3.5786339526641536e-02  1.1114878812166322e-02 -2.6686179175573069e-03 6.2189606071266168e-02  1.3330552529608884e-02 -3.7001282786994767e-03 9.4738207706309169e-02  1.5290474701366866e-02 -4.8783833259720749e-03 1.3274875557730603e-01  1.7001060077421054e-02 -6.1869200285652078e-03 1.7555338537083248e-01  1.8470724597792133e-02 -7.6083383637411900e-03 2.2250432557001484e-01  1.9710031099238749e-02 -9.1254387482657649e-03 2.7297926068712192e-01  2.0731772306503814e-02 -1.0721776248470129e-02 3.2638709990316689e-01  2.1551005802757123e-02 -1.2381982265013115e-02 3.8217391997021921e-01  2.2185056001681514e-02 -1.4091998782841033e-02 4.3982895159702379e-01  2.2653494339931132e-02 -1.5839279984506061e-02 4.9889053001305095e-01  2.2978107250839083e-02 -1.7612981318578910e-02 5.5895196418515170e-01  2.3182860414270492e-02 -1.9404142765030177e-02 6.1966730535578318e-01  2.3293869958120775e-02 -2.1205869067603723e-02 6.8075701663816302e-01  2.3339367257469990e-02 -2.3013543195574221e-02 7.4201357117054179e-01  2.3350152877846919e-02 -2.4825374481412074e-02 8.0330749849974747e-01  0.0000000000000000e+00 0.0000000000000000e+00 0.0000000000000000e+00  2.8464552132144833e-03 -6.9282928104008731e-04 3.8958736159030705e-03  5.8591238143167962e-03 -1.2425502116604965e-03 1.5762076404318641e-02  8.6646694245316111e-03 -1.9422802267412859e-03 3.5229376223522270e-02  1.1204968038682971e-02 -2.8021332904214357e-03 6.1566881904981885e-02  1.3479573895886950e-02 -3.8200870466738226e-03 9.4066834528483481e-02  1.5493066434191443e-02 -4.9842655958651618e-03 1.3204012973705206e-01  1.7251849716348543e-02 -6.2788212942058675e-03 1.7481629435991786e-01  1.8764358564953770e-02 -7.6866815169506298e-03 2.2174617283047868e-01  2.0041224912773572e-02 -9.1908562321275401e-03 2.7220650446247252e-01  2.1095358639987058e-02 -1.0775063192210256e-02 3.2560537656855210e-01  2.1941982238399473e-02 -1.2424077815289956e-02 3.8138804519646774e-01  2.2598633714598214e-02 -1.4123978009486461e-02 4.3904287601201225e-01  2.3085147537269052e-02 -1.5862349566671794e-02 4.9810727902129676e-01  2.3423622850020722e-02 -1.7628476682862985e-02 5.5817357305148552e-01  2.3638388061320036e-02 -1.9413526498789552e-02 6.1889475319582776e-01  2.3755974652693482e-02 -2.1210734245480253e-02 6.7999015985909228e-01  2.3805156104384814e-02 -2.3015589839124283e-02 7.4125104009604226e-01  2.3817106241709980e-02 -2.4826843344529906e-02 8.0254687273153791e-01  0.0000000000000000e+00 0.0000000000000000e+00 0.0000000000000000e+00  1.3613845632780199e-03 2.6967870082210149e-05 4.3192021807308117e-03  2.5748346414964118e-03 -3.8852642254952547e-04 1.6913837373680702e-02  3.6714738856844981e-03 -1.0351975931710755e-03 3.7047113299039612e-02  4.6613285810426898e-03 -1.8877014890115635e-03 6.3977769781141267e-02  5.5467438749658843e-03 -2.9195465342747562e-03 9.7003934497623831e-02  6.3292648684629745e-03 -4.1083084014975051e-03 1.3544103468482774e-01  7.0113148055667577e-03 -5.4334444868349221e-03 1.7862149126280705e-01  7.5963060059047044e-03 -6.8755379287955172e-03 2.2589860698924588e-01  8.0886014395850307e-03 -8.4161216459227028e-03 2.7665173270561605e-01  8.4934952826065755e-03 -1.0037730459077186e-02 3.3029195689174951e-01  8.8172043813317409e-03 -1.1724037298366593e-02 3.8626801652273079e-01  9.0668584194872146e-03 -1.3460020313983936e-02 4.4407226860738774e-01  9.2504857902278685e-03 -1.5232141206893118e-02 5.0324663076337595e-01  9.3769964611464009e-03 -1.7028527522964309e-02 5.6338844146947720e-01  9.4561652326658821e-03 -1.8839156692615818e-02 6.2415622049111597e-01  9.4986247126962308e-03 -2.0656038068730179e-02 6.8527533397122309e-01  9.5158861591128577e-03 -2.2473364135172820e-02 7.4654364862710243e-01  9.5200999704435057e-03 -2.4287763705044828e-02 8.0783764156388538e-01  0.0000000000000000e+00 0.0000000000000000e+00 0.0000000000000000e+00  1.3536063767422039e-03 -6.3845296007411232e-05 4.4367433757045611e-03  2.6483066924970957e-03 -4.6152879519909532e-04 1.7004854324993750e-02  3.8045965388466777e-03 -1.1012278843051378e-03 3.7046979797476662e-02  4.8487681207325739e-03 -1.9469627341452468e-03 6.3876380336206573e-02  5.7829100878279234e-03 -2.9721203867205544e-03 9.6803907838771353e-02  6.6087801860872653e-03 -4.1543203147270625e-03 1.3514924064980854e-01  7.3289830193568961e-03 -5.4730932319771736e-03 1.7824628941035381e-01  7.9470968478386403e-03 -6.9090896116671737e-03 2.2544886293020536e-01  8.4676671319806156e-03 -8.4439052049266189e-03 2.7613641396795452e-01  8.8962054854230498e-03 -1.0060135761719144e-02 3.2971993488896673e-01  9.2391891910655766e-03 -1.1741514096755742e-02 3.8564794372933853e-01  9.5040546647777464e-03 -1.3473077239285246e-02 4.4341248342486989e-01  9.6991846281625927e-03 -1.5241344620880736e-02 5.0255507287192624e-01  9.8338913783920911e-03 -1.7034500261089432e-02 5.6267257129058190e-01  9.9183991441588199e-03 -1.8842576972216769e-02 6.2342293915960600e-01  9.9638320185083829e-03 -2.0657639777833702e-02 6.8453089732806960e-01  9.9822477787887172e-03 -2.2473936941589574e-02 7.4579353988677854e-01  9.9868002907911521e-03 -2.4287969715268653e-02 8.0708637813580719e-01  0.0000000000000000e+00 0.0000000000000000e+00 0.0000000000000000e+00  1.3838478485695767e-03 -1.2490507724249769e-04 4.4841937400833011e-03  2.7317906861969296e-03 -5.2765834705831207e-04 1.7001306039120385e-02  3.9448755243498175e-03 -1.1645609243980440e-03 3.6957714177941338e-02  5.0414320348051373e-03 -2.0048986923536117e-03 6.3694317230028871e-02  6.0229758195519444e-03 -3.0239190174280017e-03 9.6532146272548136e-02  6.8911377699775013e-03 -4.1998387641135927e-03 1.3479456850105614e-01  7.6485843169529230e-03 -5.5124334413415091e-03 1.7781681499048516e-01  8.2990229131540798e-03 -6.9424762744936842e-03 2.2495309688894868e-01  8.8471741116876376e-03 -8.4716446453739856e-03 2.7558288078219623e-01  9.2987702518463004e-03 -1.0082601394180548e-02 3.2911697928286637e-01  9.6605561417770856e-03 -1.1759140827544121e-02 3.8500360960792340e-01  9.9402832064367196e-03 -1.3486358840993171e-02 4.4273442001993391e-01  1.0146696975682606e-02 -1.5250832032966486e-02 5.0185045148878504e-01  1.0289520351035709e-02 -1.7040800031656846e-02 5.6194800653641797e-01  1.0379434803970768e-02 -1.8846349454240276e-02 6.2268441185244761e-01  1.0428061956913074e-02 -2.0659598832802984e-02 6.8378367576630117e-01  1.0447989591848119e-02 -2.2474859100918808e-02 7.4504208538292171e-01  1.0453069011775085e-02 -2.4288599013743858e-02 8.0633416361319032e-01  0.0000000000000000e+00 0.0000000000000000e+00 0.0000000000000000e+00  1.4249166465715357e-03 -1.7694523726099158e-04 4.4668555401008126e-03  2.8244772520578786e-03 -5.9054026491302161e-04 1.6905965992617993e-02  4.0929225428249019e-03 -1.2279796664882408e-03 3.6774511195878073e-02  5.2409674605782032e-03 -2.0642859815949858e-03 6.3424390768091726e-02  6.2690455755381501e-03 -3.0775389818875004e-03 9.6181093457411521e-02  7.1786434866138362e-03 -4.2471924512965144e-03 1.3436983629240731e-01  7.9725091279545975e-03 -5.5534972584815228e-03 1.7732651566583824e-01  8.6544912473521841e-03 -6.9774320135739913e-03 2.2440546654952223e-01  9.2294951344560287e-03 -8.5007862666296400e-03 2.7498601364169689e-01  9.7034826264856700e-03 -1.0106302262167077e-02 3.2847867685871529e-01  1.0083474436667106e-02 -1.1777841536760430e-02 3.8433127540482998e-01  1.0377545105406349e-02 -1.3500562196736917e-02 4.4203497211151982e-01  1.0594810822293771e-02 -1.5261100488178846e-02 5.0113024258758720e-01  1.0745412722723864e-02 -1.7047753748566413e-02 5.6121274775683927e-01  1.0840497505794135e-02 -1.8850663865432341e-02 6.2193909887690901e-01  1.0892193512560983e-02 -2.0662002843583951e-02 6.8303251703645962e-01  1.0913612876053559e-02 -2.2476149215564029e-02 7.4428842375524362e-01  1.0919192548692416e-02 -2.4289655826075816e-02 8.0558029850494051e-01  0.0000000000000000e+00 0.0000000000000000e+00 0.0000000000000000e+00  1.4640250173251609e-03 -2.2949304073641193e-04 4.3909632097526886e-03  2.9186687383716708e-03 -6.5456566164834936e-04 1.6723380168897718e-02  4.2433155552804363e-03 -1.2938103385529282e-03 3.6498356463765050e-02  5.4430683451016414e-03 -2.1265865613578280e-03 6.3065904757214991e-02  6.5175730832409294e-03 -3.1340998751846916e-03 9.5749430686167813e-02  7.4683998790824402e-03 -4.2972957250828553e-03 1.3387356102946293e-01  8.2984462388315562e-03 -5.5970366691646149e-03 1.7677393393245899e-01  9.0117257357609556e-03 -7.0145640210230176e-03 2.2380461310306826e-01  9.6133384665816994e-03 -8.5318036432007055e-03 2.7434457861104605e-01  1.0109481172541452e-02 -1.0131588324773049e-02 3.2780392585235285e-01  1.0507454023668043e-02 -1.1797853019654071e-02 3.8362997085835071e-01  1.0815657471216430e-02 -1.3515822371453915e-02 4.4131329643971434e-01  1.1043580828902704e-02 -1.5272195917830874e-02 5.0039372309519337e-01  1.1201785789659559e-02 -1.7055332122787377e-02 5.6046618338039933e-01  1.1301887276362142e-02 -1.8855431332543762e-02 6.2118648925360476e-01  1.1356527533196872e-02 -2.0664720575940689e-02 6.8227699567808553e-01  1.1379350627772917e-02 -2.2477649209097825e-02 7.4353218938072219e-01  1.1385344643279808e-02 -2.4290957381776099e-02 8.0482448237976734e-01  0.0000000000000000e+00 0.0000000000000000e+00 0.0000000000000000e+00  1.4961432613657963e-03 -2.8980165538888722e-04 4.2548066285529448e-03  3.0091956722991535e-03 -7.2400534871807178e-04 1.6453515669132834e-02  4.3917673780104159e-03 -1.3642189767559109e-03 3.6129757097840026e-02  5.6439463089222449e-03 -2.1930081554359278e-03 6.2618971570943094e-02  6.7652470448300393e-03 -3.1944017544743414e-03 9.5236972130993747e-02  7.7575692159827557e-03 -4.3507475302103525e-03 1.3330542819197685e-01  8.6240178300349603e-03 -5.6435216507031757e-03 1.7615871617610765e-01  9.3687852109326838e-03 -7.0542407800824759e-03 2.2315018439384754e-01  9.9971699473516834e-03 -8.5649762047134217e-03 2.7365824288637597e-01  1.0515603879560869e-02 -1.0158657519317481e-02 3.2709242125811694e-01  1.0931665395066610e-02 -1.1819297986997464e-02 3.8289942339999916e-01  1.1254079064869131e-02 -1.3532193110922262e-02 4.4056915594920304e-01  1.1492705360125106e-02 -1.5284109828889279e-02 4.9964069380840181e-01  1.1658524530819744e-02 -1.7063471851564711e-02 5.5970815380109307e-01  1.1763618197064242e-02 -1.8860542401873352e-02 6.2042646343904218e-01  1.1821146867127265e-02 -2.0667606887961279e-02 6.8151702856877372e-01  1.1845306643952284e-02 -2.2479185910956927e-02 7.4277332651068417e-01  1.1851625802136940e-02 -2.4292285308149367e-02 8.0406669308595491e-01  0.0000000000000000e+00 0.0000000000000000e+00 0.0000000000000000e+00  1.5175270123141587e-03 -3.6668721071310173e-04 4.0466038432070469e-03  3.0904404238932333e-03 -8.0462687831060634e-04 1.6090055905318576e-02  4.5322608630918460e-03 -1.4430102323523062e-03 3.5666096423284228e-02  5.8377241717402877e-03 -2.2662553462062065e-03 6.2082160348218521e-02  7.0066463237067065e-03 -3.2605374459891124e-03 9.4642707924228603e-02  8.0413059959149186e-03 -4.4092519807769981e-03 1.3266464146973783e-01  8.9449870425755695e-03 -5.6943606655959038e-03 1.7548022054979534e-01  9.7220381741625408e-03 -7.0976172170897937e-03 2.2244167261752140e-01  1.0377942750033221e-02 -8.6012294883821006e-03 2.7292662266617357e-01  1.0919357563657405e-02 -1.0188224736324952e-02 3.2634389568711281e-01  1.1354130338898609e-02 -1.1842698771896996e-02 3.8213947452459424e-01  1.1691301427637826e-02 -1.3550023399567226e-02 4.3980249280023931e-01  1.1941094443142663e-02 -1.5297038818745775e-02 4.9887118838660710e-01  1.2114900417687095e-02 -1.707