<?xml version="1.0"?>
<VTKFile type="UnstructuredGrid"  version="0.1"  >
<UnstructuredGrid>
<Piece  NumberOfPoints="760" NumberOfCells="3024">
<Points>
<DataArray  type="Float64"  NumberOfComponents="3"  format="ascii">0 0 0  0.05555555555555555 0 0  0.1111111111111111 0 0  0.1666666666666667 0 0  0.2222222222222222 0 0  0.2777777777777778 0 0  0.3333333333333333 0 0  0.3888888888888889 0 0  0.4444444444444444 0 0  0.5 0 0  0.5555555555555556 0 0  0.6111111111111112 0 0  0.6666666666666666 0 0  0.7222222222222222 0 0  0.7777777777777778 0 0  0.8333333333333334 0 0  0.8888888888888888 0 0  0.9444444444444444 0 0  1 0 0  0 0.01428571428571429 0  0.05555555555555555 0.01428571428571429 0  0.1111111111111111 0.01428571428571429 0  0.1666666666666667 0.01428571428571429 0  0.2222222222222222 0.01428571428571429 0  0.2777777777777778 0.01428571428571429 0  0.3333333333333333 0.01428571428571429 0  0.3888888888888889 0.01428571428571429 0  0.4444444444444444 0.01428571428571429 0  0.5 0.01428571428571429 0  0.5555555555555556 0.01428571428571429 0  0.6111111111111112 0.01428571428571429 0  0.6666666666666666 0.01428571428571429 0  0.7222222222222222 0.01428571428571429 0  0.7777777777777778 0.01428571428571429 0  0.8333333333333334 0.01428571428571429 0  0.8888888888888888 0.01428571428571429 0  0.9444444444444444 0.01428571428571429 0  1 0.01428571428571429 0  0 0.02857142857142857 0  0.05555555555555555 0.02857142857142857 0  0.1111111111111111 0.02857142857142857 0  0.1666666666666667 0.02857142857142857 0  0.2222222222222222 0.02857142857142857 0  0.2777777777777778 0.02857142857142857 0  0.3333333333333333 0.02857142857142857 0  0.3888888888888889 0.02857142857142857 0  0.4444444444444444 0.02857142857142857 0  0.5 0.02857142857142857 0  0.5555555555555556 0.02857142857142857 0  0.6111111111111112 0.02857142857142857 0  0.6666666666666666 0.02857142857142857 0  0.7222222222222222 0.02857142857142857 0  0.7777777777777778 0.02857142857142857 0  0.8333333333333334 0.02857142857142857 0  0.8888888888888888 0.02857142857142857 0  0.9444444444444444 0.02857142857142857 0  1 0.02857142857142857 0  0 0.04285714285714286 0  0.05555555555555555 0.04285714285714286 0  0.1111111111111111 0.04285714285714286 0  0.1666666666666667 0.04285714285714286 0  0.2222222222222222 0.04285714285714286 0  0.2777777777777778 0.04285714285714286 0  0.3333333333333333 0.04285714285714286 0  0.3888888888888889 0.04285714285714286 0  0.4444444444444444 0.04285714285714286 0  0.5 0.04285714285714286 0  0.5555555555555556 0.04285714285714286 0  0.6111111111111112 0.04285714285714286 0  0.6666666666666666 0.04285714285714286 0  0.7222222222222222 0.04285714285714286 0  0.7777777777777778 0.04285714285714286 0  0.8333333333333334 0.04285714285714286 0  0.8888888888888888 0.04285714285714286 0  0.9444444444444444 0.04285714285714286 0  1 0.04285714285714286 0  0 0.05714285714285715 0  0.05555555555555555 0.05714285714285715 0  0.1111111111111111 0.05714285714285715 0  0.1666666666666667 0.05714285714285715 0  0.2222222222222222 0.05714285714285715 0  0.2777777777777778 0.05714285714285715 0  0.3333333333333333 0.05714285714285715 0  0.3888888888888889 0.05714285714285715 0  0.4444444444444444 0.05714285714285715 0  0.5 0.05714285714285715 0  0.5555555555555556 0.05714285714285715 0  0.6111111111111112 0.05714285714285715 0  0.6666666666666666 0.05714285714285715 0  0.7222222222222222 0.05714285714285715 0  0.7777777777777778 0.05714285714285715 0  0.8333333333333334 0.05714285714285715 0  0.8888888888888888 0.05714285714285715 0  0.9444444444444444 0.05714285714285715 0  1 0.05714285714285715 0  0 0.07142857142857142 0  0.05555555555555555 0.07142857142857142 0  0.1111111111111111 0.07142857142857142 0  0.1666666666666667 0.07142857142857142 0  0.2222222222222222 0.07142857142857142 0  0.2777777777777778 0.07142857142857142 0  0.3333333333333333 0.07142857142857142 0  0.3888888888888889 0.07142857142857142 0  0.4444444444444444 0.07142857142857142 0  0.5 0.07142857142857142 0  0.5555555555555556 0.07142857142857142 0  0.6111111111111112 0.07142857142857142 0  0.6666666666666666 0.07142857142857142 0  0.7222222222222222 0.07142857142857142 0  0.7777777777777778 0.07142857142857142 0  0.8333333333333334 0.07142857142857142 0  0.8888888888888888 0.07142857142857142 0  0.9444444444444444 0.07142857142857142 0  1 0.07142857142857142 0  0 0.08571428571428573 0  0.05555555555555555 0.08571428571428573 0  0.1111111111111111 0.08571428571428573 0  0.1666666666666667 0.08571428571428573 0  0.2222222222222222 0.08571428571428573 0  0.2777777777777778 0.08571428571428573 0  0.3333333333333333 0.08571428571428573 0  0.3888888888888889 0.08571428571428573 0  0.4444444444444444 0.08571428571428573 0  0.5 0.08571428571428573 0  0.5555555555555556 0.08571428571428573 0  0.6111111111111112 0.08571428571428573 0  0.6666666666666666 0.08571428571428573 0  0.7222222222222222 0.08571428571428573 0  0.7777777777777778 0.08571428571428573 0  0.8333333333333334 0.08571428571428573 0  0.8888888888888888 0.08571428571428573 0  0.9444444444444444 0.08571428571428573 0  1 0.08571428571428573 0  0 0.1 0  0.05555555555555555 0.1 0  0.1111111111111111 0.1 0  0.1666666666666667 0.1 0  0.2222222222222222 0.1 0  0.2777777777777778 0.1 0  0.3333333333333333 0.1 0  0.3888888888888889 0.1 0  0.4444444444444444 0.1 0  0.5 0.1 0  0.5555555555555556 0.1 0  0.6111111111111112 0.1 0  0.6666666666666666 0.1 0  0.7222222222222222 0.1 0  0.7777777777777778 0.1 0  0.8333333333333334 0.1 0  0.8888888888888888 0.1 0  0.9444444444444444 0.1 0  1 0.1 0  0 0 0.01  0.05555555555555555 0 0.01  0.1111111111111111 0 0.01  0.1666666666666667 0 0.01  0.2222222222222222 0 0.01  0.2777777777777778 0 0.01  0.3333333333333333 0 0.01  0.3888888888888889 0 0.01  0.4444444444444444 0 0.01  0.5 0 0.01  0.5555555555555556 0 0.01  0.6111111111111112 0 0.01  0.6666666666666666 0 0.01  0.7222222222222222 0 0.01  0.7777777777777778 0 0.01  0.8333333333333334 0 0.01  0.8888888888888888 0 0.01  0.9444444444444444 0 0.01  1 0 0.01  0 0.01428571428571429 0.01  0.05555555555555555 0.01428571428571429 0.01  0.1111111111111111 0.01428571428571429 0.01  0.1666666666666667 0.01428571428571429 0.01  0.2222222222222222 0.01428571428571429 0.01  0.2777777777777778 0.01428571428571429 0.01  0.3333333333333333 0.01428571428571429 0.01  0.3888888888888889 0.01428571428571429 0.01  0.4444444444444444 0.01428571428571429 0.01  0.5 0.01428571428571429 0.01  0.5555555555555556 0.01428571428571429 0.01  0.6111111111111112 0.01428571428571429 0.01  0.6666666666666666 0.01428571428571429 0.01  0.7222222222222222 0.01428571428571429 0.01  0.7777777777777778 0.01428571428571429 0.01  0.8333333333333334 0.01428571428571429 0.01  0.8888888888888888 0.01428571428571429 0.01  0.9444444444444444 0.01428571428571429 0.01  1 0.01428571428571429 0.01  0 0.02857142857142857 0.01  0.05555555555555555 0.02857142857142857 0.01  0.1111111111111111 0.02857142857142857 0.01  0.1666666666666667 0.02857142857142857 0.01  0.2222222222222222 0.02857142857142857 0.01  0.2777777777777778 0.02857142857142857 0.01  0.3333333333333333 0.02857142857142857 0.01  0.3888888888888889 0.02857142857142857 0.01  0.4444444444444444 0.02857142857142857 0.01  0.5 0.02857142857142857 0.01  0.5555555555555556 0.02857142857142857 0.01  0.6111111111111112 0.02857142857142857 0.01  0.6666666666666666 0.02857142857142857 0.01  0.7222222222222222 0.02857142857142857 0.01  0.7777777777777778 0.02857142857142857 0.01  0.8333333333333334 0.02857142857142857 0.01  0.8888888888888888 0.02857142857142857 0.01  0.9444444444444444 0.02857142857142857 0.01  1 0.02857142857142857 0.01  0 0.04285714285714286 0.01  0.05555555555555555 0.04285714285714286 0.01  0.1111111111111111 0.04285714285714286 0.01  0.1666666666666667 0.04285714285714286 0.01  0.2222222222222222 0.04285714285714286 0.01  0.2777777777777778 0.04285714285714286 0.01  0.3333333333333333 0.04285714285714286 0.01  0.3888888888888889 0.04285714285714286 0.01  0.4444444444444444 0.04285714285714286 0.01  0.5 0.04285714285714286 0.01  0.5555555555555556 0.04285714285714286 0.01  0.6111111111111112 0.04285714285714286 0.01  0.6666666666666666 0.04285714285714286 0.01  0.7222222222222222 0.04285714285714286 0.01  0.7777777777777778 0.04285714285714286 0.01  0.8333333333333334 0.04285714285714286 0.01  0.8888888888888888 0.04285714285714286 0.01  0.9444444444444444 0.04285714285714286 0.01  1 0.04285714285714286 0.01  0 0.05714285714285715 0.01  0.05555555555555555 0.05714285714285715 0.01  0.1111111111111111 0.05714285714285715 0.01  0.1666666666666667 0.05714285714285715 0.01  0.2222222222222222 0.05714285714285715 0.01  0.2777777777777778 0.05714285714285715 0.01  0.3333333333333333 0.05714285714285715 0.01  0.3888888888888889 0.05714285714285715 0.01  0.4444444444444444 0.05714285714285715 0.01  0.5 0.05714285714285715 0.01  0.5555555555555556 0.05714285714285715 0.01  0.6111111111111112 0.05714285714285715 0.01  0.6666666666666666 0.05714285714285715 0.01  0.7222222222222222 0.05714285714285715 0.01  0.7777777777777778 0.05714285714285715 0.01  0.8333333333333334 0.05714285714285715 0.01  0.8888888888888888 0.05714285714285715 0.01  0.9444444444444444 0.05714285714285715 0.01  1 0.05714285714285715 0.01  0 0.07142857142857142 0.01  0.05555555555555555 0.07142857142857142 0.01  0.1111111111111111 0.07142857142857142 0.01  0.1666666666666667 0.07142857142857142 0.01  0.2222222222222222 0.07142857142857142 0.01  0.2777777777777778 0.07142857142857142 0.01  0.3333333333333333 0.07142857142857142 0.01  0.3888888888888889 0.07142857142857142 0.01  0.4444444444444444 0.07142857142857142 0.01  0.5 0.07142857142857142 0.01  0.5555555555555556 0.07142857142857142 0.01  0.6111111111111112 0.07142857142857142 0.01  0.6666666666666666 0.07142857142857142 0.01  0.7222222222222222 0.07142857142857142 0.01  0.7777777777777778 0.07142857142857142 0.01  0.8333333333333334 0.07142857142857142 0.01  0.8888888888888888 0.07142857142857142 0.01  
[...]
<PointData  Vectors="f_33"> 
<DataArray  type="Float64"  Name="f_33"  NumberOfComponents="3" format="ascii">0.0000000000000000e+00 0.0000000000000000e+00 0.0000000000000000e+00  -3.4475287486496202e-03 -2.5004498783068476e-04 -4.8528916177719731e-03  -6.4650999674796122e-03 2.5442576489675595e-05 -1.8689024465796854e-02  -9.2485279830012562e-03 4.7479651417460788e-04 -4.0957606250621226e-02  -1.1800552537124885e-02 1.0444876607716056e-03 -7.0943157581756400e-02  -1.4123863633763572e-02 1.7095869350754491e-03 -1.0797016546964699e-01  -1.6219727467655726e-02 2.4553366653022931e-03 -1.5137517191710576e-01  -1.8089823463484270e-02 3.2705043192107126e-03 -2.0050248492629519e-01  -1.9736385999389493e-02 4.1452440467624535e-03 -2.5470360272853132e-01  -2.1162310502953318e-02 5.0703204466360438e-03 -3.1333783149691991e-01  -2.2371504758714644e-02 6.0368134883728797e-03 -3.7577397247817934e-01  -2.3369503610165723e-02 7.0360197946792531e-03 -4.4139356767216320e-01  -2.4164316472543083e-02 8.0594644787050189e-03 -5.0959635217488941e-01  -2.4767446193071474e-02 9.0990035605261286e-03 -5.7980851254051713e-01  -2.5194988170600435e-02 1.0147015480493590e-02 -6.5149415223563600e-01  -2.5468702006425179e-02 1.1196682157356457e-02 -7.2417006546577822e-01  -2.5616970467457145e-02 1.2242355971228700e-02 -7.9742358520436629e-01  -2.5675652160426211e-02 1.3279986719297032e-02 -8.7093308182080986e-01  -2.5688435794025469e-02 1.4307773878788713e-02 -9.4449167964830816e-01  0.0000000000000000e+00 0.0000000000000000e+00 0.0000000000000000e+00  -3.2748975872594287e-03 -7.7477337628516213e-05 -4.9979590854278338e-03  -6.3463695625031163e-03 1.8021161659312958e-04 -1.8793466742836572e-02  -9.1740238156044953e-03 6.1661773606557966e-04 -4.0961838923830943e-02  -1.1767648579421894e-02 1.1737267307542045e-03 -7.0835650123254004e-02  -1.4129814599708322e-02 1.8263617080086984e-03 -1.0775260093752873e-01  -1.6261883133162434e-02 2.5597449616878284e-03 -1.5105360870535778e-01  -1.8165618968643972e-02 3.3626699983016102e-03 -2.0008452503912458e-01  -1.9843308541176503e-02 4.2253282992662415e-03 -2.5419742717808858e-01  -2.1297863506609772e-02 5.1385397829143463e-03 -3.1275186813659012e-01  -2.2533167531350585e-02 6.0934709129749345e-03 -3.7511679933727710e-01  -2.3554684699659358e-02 7.0815482289392296e-03 -4.4067390219766189e-01  -2.4370304805726307e-02 8.0944794518744891e-03 -5.0882306047043935e-01  -2.4991367793885461e-02 9.1243605375121526e-03 -5.7899060271272196e-01  -2.5433777389209197e-02 1.0163865775986259e-02 -6.5064072763282155e-01  -2.5719093485102290e-02 1.1206520619469050e-02 -7.2329021786718650e-01  -2.5875505501983195e-02 1.2247053589327891e-02 -7.9652620386828155e-01  -2.5938717307982070e-02 1.3281781898500196e-02 -8.7002651163337041e-01  -2.5953144290219120e-02 1.4308693190642192e-02 -9.4358296629272320e-01  0.0000000000000000e+00 0.0000000000000000e+00 0.0000000000000000e+00  -3.2483145180619245e-03 5.4180865642009563e-05 -5.0545112033882423e-03  -6.3344610277062457e-03 3.3054371480641955e-04 -1.8796054949382170e-02  -9.1924388427913999e-03 7.6335522563740889e-04 -4.0867132022727085e-02  -1.1817509896331454e-02 1.3106197450643640e-03 -7.0636556738837258e-02  -1.4209618070940263e-02 1.9513037906460431e-03 -1.0745177392447973e-01  -1.6369477604701543e-02 2.6720866220462393e-03 -1.5065730965820145e-01  -1.8298690102486252e-02 3.4622781076708354e-03 -1.9960035053724412e-01  -1.9999516821890537e-02 4.3122777250391188e-03 -2.5363346856728120e-01  -2.1474883556194400e-02 5.2130236796012232e-03 -3.1211640539860180e-01  -2.2728695403045552e-02 6.1557926624252373e-03 -3.7441819698160955e-01  -2.3766433557935462e-02 7.1321496166094501e-03 -4.3992057523149536e-01  -2.4595999227962920e-02 8.1339872632251575e-03 -5.0802345130053628e-01  -2.5228743997082283e-02 9.1536417303633641e-03 -5.7815313767819920e-01  -2.5680594854560566e-02 1.0184082996332182e-02 -6.4977373377326242e-01  -2.5973159805537837e-02 1.1219179303454977e-02 -7.2240178641470698e-01  -2.6134704379239551e-02 1.2254032842565323e-02 -7.9562398721468564e-01  -2.6201016360662927e-02 1.3285345779507194e-02 -8.6911742067916864e-01  -2.6216702023079349e-02 1.4311211805983234e-02 -9.4267258381803576e-01  0.0000000000000000e+00 0.0000000000000000e+00 0.0000000000000000e+00  -3.2462726894731744e-03 1.6707492659389647e-04 -5.0373437473772925e-03  -6.3471466253027277e-03 4.7479990608928442e-04 -1.8693676784043326e-02  -9.2338886965832329e-03 9.1144744431643891e-04 -4.0665554911789366e-02  -1.1888778355191922e-02 1.4514950075519414e-03 -7.0336202908103898e-02  -1.4308965073312670e-02 2.0809740891954368e-03 -1.0705792150114048e-01  -1.6494658829218085e-02 2.7891734080008287e-03 -1.5017707327927293e-01  -1.8447370547245198e-02 3.5663772078360226e-03 -1.9904155848481458e-01  -2.0169364171030109e-02 4.4033675866669165e-03 -2.5300420383120376e-01  -2.1663594048204334e-02 5.2912678005067396e-03 -3.1142482029101587e-01  -2.2934000404925201e-02 6.2214910415434119e-03 -3.7367243615185586e-01  -2.3986100407616586e-02 7.1857514933149867e-03 -4.3912872992957946e-01  -2.4827833832805235e-02 8.1761318610408893e-03 -5.0719350641915750e-01  -2.5470600928193709e-02 9.1852114493771262e-03 -5.7729289017720609e-01  -2.5930399252485675e-02 1.0206258598990006e-02 -6.4889067006219148e-01  -2.6228942942153770e-02 1.1233486901804614e-02 -7.2150291253244481e-01  -2.6394643488507858e-02 1.2262373668140075e-02 -7.9471560883899994e-01  -2.6463433411854639e-02 1.3290015269989968e-02 -8.6820485255579782e-01  -2.6480082468699935e-02 1.4314901191530074e-02 -9.4175960098856937e-01  0.0000000000000000e+00 0.0000000000000000e+00 0.0000000000000000e+00  -3.2385213102647651e-03 2.7614565689291603e-04 -4.9523263717289072e-03  -6.3617311113833659e-03 6.1719435848336685e-04 -1.8491310912495919e-02  -9.2802943326583849e-03 1.0606087383286027e-03 -4.0357645623977673e-02  -1.1965913172197142e-02 1.5948796040707073e-03 -6.9933443912057289e-02  -1.4414232712042100e-02 2.2136173373529734e-03 -1.0656930240057960e-01  -1.6625498992362972e-02 2.9092560785664795e-03 -1.4961102136165705e-01  -1.8601331787836236e-02 3.6733149378961262e-03 -1.9840632086202281e-01  -2.0344067813668099e-02 4.4970695275146485e-03 -2.5230792700420596e-01  -2.1856714304375521e-02 5.3718728314749659e-03 -3.1067555418263648e-01  -2.3143253896570602e-02 6.2892921202799528e-03 -3.7287811191102971e-01  -2.4209240648281064e-02 7.2411978590436223e-03 -4.3829711339919109e-01  -2.5062652119657389e-02 8.2198660586333509e-03 -5.0633211957215640e-01  -2.5714937143465205e-02 9.2181217278561583e-03 -5.7640889302577913e-01  -2.6182166109736504e-02 1.0229534808634727e-02 -6.4799069901547868e-01  -2.6486166595464246e-02 1.1248669117824999e-02 -7.2059287661301197e-01  -2.6655516415041883e-02 1.2271382633239215e-02 -7.9380045061948001e-01  -2.6726329804021905e-02 1.3295177788342681e-02 -8.6728826321434960e-01  -2.6743624202473122e-02 1.4319164094956508e-02 -9.4084357957658615e-01  0.0000000000000000e+00 0.0000000000000000e+00 0.0000000000000000e+00  -3.2138219442881251e-03 3.9401584089235054e-04 -4.7964729669969708e-03  -6.3671865156545776e-03 7.6454518013181077e-04 -1.8188399486212165e-02  -9.3218813330917041e-03 1.2133387104498587e-03 -3.9943111774591408e-02  -1.2040062845463382e-02 1.7414167650016716e-03 -6.9427645426636500e-02  -1.4517430762475718e-02 2.3492004915813191e-03 -1.0598507836146341e-01  -1.6754863264676661e-02 3.0320632563744813e-03 -1.4895826354760786e-01  -1.8754285830707380e-02 3.7827389693635936e-03 -1.9769377415549891e-01  -2.0518175579703427e-02 4.5930053241270185e-03 -2.5154383670340480e-01  -2.2049614563831723e-02 5.4544509624871356e-03 -3.0986788314484781e-01  -2.3352630294759320e-02 6.3587992549168689e-03 -3.7203458492425295e-01  -2.4432806219584189e-02 7.2980774512399274e-03 -4.3742517473551357e-01  -2.5298144186542516e-02 8.2647557178904714e-03 -5.0543883052939742e-01  -2.5960124249849462e-02 9.2519071890801077e-03 -5.7550077760105700e-01  -2.6434870092246595e-02 1.0253408439462201e-02 -6.4707354262657990e-01  -2.6744303611579191e-02 1.1264182730245355e-02 -7.1967148634155420e-01  -2.6917162581668253e-02 1.2280482293254047e-02 -7.9287839262232285e-01  -2.6989769656608230e-02 1.3300235939485865e-02 -8.6636758371279743e-01  -2.7007468004791032e-02 1.4323348558244206e-02 -9.3992451731858540e-01  0.0000000000000000e+00 0.0000000000000000e+00 0.0000000000000000e+00  -3.1565432812518729e-03 5.3154825763226954e-04 -4.5553288475065901e-03  -6.3453813092615545e-03 9.2330164830066984e-04 -1.7777014879114789e-02  -9.3402236607227143e-03 1.3727600719930198e-03 -3.9417939198112692e-02  -1.2093473635094660e-02 1.8925000261960075e-03 -6.8816121038171585e-02  -1.4602045050443683e-02 2.4883599618066212e-03 -1.0530312257874808e-01  -1.6867698833481198e-02 3.1579063479806229e-03 -1.4821700747333033e-01  -1.8892716881784552e-02 3.8948097703210031e-03 -1.9690239085944222e-01  -2.0679728948977662e-02 4.6912505034687833e-03 -2.5071064797740222e-01  -2.2231891431886783e-02 5.5390148822247048e-03 -3.0900075827297718e-01  -2.3553266742679442e-02 6.4299662257565442e-03 -3.7114104096071276e-01  -2.4649447992050103e-02 7.3562814195055589e-03 -4.3651233343750795e-01  -2.5528431094870806e-02 8.3106227917758534e-03 -5.0451328895547443e-01  -2.6201686233159299e-02 9.2863139304107858e-03 -5.7456841488828103e-01  -2.6685338899221579e-02 1.0277544981234494e-02 -6.4613927635550950e-01  -2.7001344473090716e-02 1.1279611933656826e-02 -7.1873899288089693e-01  -2.7178541088071179e-02 1.2289183415945718e-02 -7.9194981330047498e-01  -2.7253448165671081e-02 1.3304631735703142e-02 -8.6544324842675457e-01  -2.7271646550735665e-02 1.4326815645630493e-02 -9.3900284447581872e-01  0.0000000000000000e+00 0.0000000000000000e+00 0.0000000000000000e+00  -3.0005395255684282e-03 6.7992294546284583e-04 -4.2218849460430967e-03  -6.2217836347329284e-03 1.0848764375317984e-03 -1.7257878216623650e-02  -9.2614498353474212e-03 1.5303785607888379e-03 -3.8787100936998900e-02  -1.2056005962361489e-02 2.0398863637775123e-03 -6.8105122767103565e-02  -1.4603199055296912e-02 2.6233600007958980e-03 -1.0452989337411471e-01  -1.6904980954801890e-02 3.2797175992867458e-03 -1.4739349889366501e-01  -1.8963648652552945e-02 4.0032013175649800e-03 -1.9603804793623783e-01  -2.0781842099524758e-02 4.7862451296989432e-03 -2.4981381404209732e-01  -2.2362725360095308e-02 5.6207701356062335e-03 -3.0807919287210339e-01  -2.3710345576899668e-02 6.4987488419526868e-03 -3.7020205116871080e-01  -2.4830242855161673e-02 7.4124887404073900e-03 -4.3556271971221161e-01  -2.5730315826476450e-02 8.3548296285022253e-03 -5.0355918417735512e-01  -2.6421895462399630e-02 9.3193327971190613e-03 -5.7361505040413951e-01  -2.6920937684015829e-02 1.0300490813431092e-02 -6.4519069575472909e-01  -2.7249218544126364e-02 1.1293964171639300e-02 -7.1779773289044191e-01  -2.7435415830500014e-02 1.2296844014740465e-02 -7.9101657450130469e-01  -2.7516045645088166e-02 1.3307914622953982e-02 -8.6451653079395252e-01  -2.7536263334372417e-02 1.4329165249053701e-02 -9.3807913922307418e-01  0.0000000000000000e+00 0.0000000000000000e+00 0.0000000000000000e+00  -1.6180722672521661e-03 -1.2058180100315062e-04 -4.7065745679596826e-03  -3.0855506311025537e-03 1.2446828132800186e-04 -1.8552486094337076e-02  -4.4329835226488102e-03 4.9950169337694360e-04 -4.0830850339760749e-02  -5.6694837980927528e-03 9.8818873719999385e-04 -7.0826660157384730e-02  -6.7964391228949421e-03 1.5740560470205831e-03 -1.0786407250936442e-01  -7.8141070017447543e-03 2.2450390030092351e-03 -1.5127950440349691e-01  -8.7230803663365473e-03 2.9908590028508569e-03 -2.0041719197901894e-01  -9.5243151381530309e-03 3.8020331066097798e-03 -2.5462859128773596e-01  -1.0219129459295933e-02 4.6694896631061201e-03 -3.1327297160613499e-01  -1.0809345749735655e-02 5.5844211483458105e-03 -3.7571908384890429e-01  -1.1297571067421906e-02 6.5382405610699247e-03 -4.4134839173223522e-01  -1.1687592882322809e-02 7.5226060776708466e-03 -5.0956051261797941e-01  -1.1984858536261835e-02 8.5295119374679783e-03 -5.7978146783301887e-01  -1.2196995132977628e-02 9.5514509891517323e-03 -6.5147514445550958e-01  -1.2334319788751460e-02 1.0581651818799021e-02 -7.2415807025938206e-01  -1.2410299224045724e-02 1.1614383177331987e-02 -7.9741726487232412e-01  -1.2441952041299852e-02 1.2645271753944283e-02 -8.7093073237545326e-01  -1.2449781063286541e-02 1.3671745133354085e-02 -9.4449062433145159e-01  0.0000000000000000e+00 0.0000000000000000e+00 0.0000000000000000e+00  -1.5704722730054488e-03 -1.1347036474658643e-05 -4.8377639738766643e-03  -3.0950124078784774e-03 2.1436243126505815e-04 -1.8656411741297202e-02  -4.4769150712500082e-03 5.8218446199484973e-04 -4.0835792473646937e-02  -5.7450306472040464e-03 1.0637687499797190e-03 -7.0720171844533983e-02  -6.9007106648169524e-03 1.6425284940696637e-03 -1.0764752986711273e-01  -7.9444581977916474e-03 2.3064168797887336e-03 -1.5095886628613547e-01  -8.8770166840446731e-03 3.0451910906642578e-03 -2.0000002482330886e-01  -9.6994306327984874e-03 3.8493973865327095e-03 -2.5412306378213034e-01  -1.0413072210315410e-02 4.7099968974431954e-03 -3.1268750917272009e-01  -1.1019796831428732e-02 5.6182293885972349e-03 -3.7506226780118113e-01  -1.1522230861064403e-02 6.5655782795825211e-03 -4.4062894770481997e-01  -1.1924175550288572e-02 7.5438015309529970e-03 -5.0878732017319750e-01  -1.2231098396573674e-02 8.5450259522736431e-03 -5.7896355446304348e-01  -1.2450668851647761e-02 9.5619098110321116e-03 -6.5062163942860762e-01  -1.2593285642402960e-02 1.0587876661291689e-02 -7.2327809853560998e-01  -1.2672547376234133e-02 1.1617414156207168e-02 -7.9651975833596866e-01  -1.2705682198207122e-02 1.2646379590322609e-02 -8.7002408599517544e-01  -1.2714073782559159e-02 1.3672144369777031e-02 -9.4358213869159047e-01  0.0000000000000000e+00 0.0000000000000000e+00 0.0000000000000000e+00  -1.5684748742014307e-03 6.1776741323915570e-05 -4.8902915878159944e-03  -3.1175984675646589e-03 2.9401895044436129e-04 -1.8653801218210694e-02  -4.5309549858545909e-03 6.5925782107805213e-04 -4.0738865732720154e-02  -5.8286551754743723e-03 1.1353997117029473e-03 -7.0519917613295527e-02  -7.0116612486113344e-03 1.7078333737248037e-03 -1.0734596249635169e-01  -8.0803363737807256e-03 2.3651220775807035e-03 -1.5056201905493577e-01  -9.0354314178054552e-03 3.0972469168350837e-03 -1.9951541283350599e-01  -9.8780303639682543e-03 3.8948464325317665e-03 -2.5355874842364323e-01  -1.0609547855384701e-02 4.7489369032496136e-03 -3.1205175955755560e-01  -1.1231879458968684e-02 5.6508124063188083e-03 -3.7436344516982245e-01  -1.1747690152636882e-02 6.5920267040392999e-03 -4.3987546693768892e-01  -1.2160823670654325e-02 7.5644331239702210e-03 -5.0798762455658930e-01  -1.2476803757279277e-02 8.5602832259737503e-03 -5.7812607078761913e-01  -1.2703383274584248e-02 9.5723896957682630e-03 -6.4975469348497394e-01  -1.2851085359966362e-02 1.0594356318280760e-02 -7.2238977743703092e-01  -1.2933679697114737e-02 1.1620871262670810e-02 -7.9561770715963698e-01  -1.2968610882955096e-02 1.2648014333987729e-02 -8.6911520625064664e-01  -1.2977735164970645e-02 1.3673246391939724e-02 -9.4267205541326660e-01  0.0000000000000000e+00 0.0000000000000000e+00 0.0000000000000000e+00  -1.5802700132557445e-03 1.2225055874005061e-04 -4.8703527842481357e-03  -3.1516168912809560e-03 3.6760752230250533e-04 -1.8547761503209605e-02  -4.5947685419282782e-03 7.3409759333440512e-04 -4.0534873331519852e-02  -5.9211651657488356e-03 1.2064814716552139e-03 -7.0217976313300914e-02  -7.1306342793372992e-03 1.7732016237028854e-03 -1.0695093717158470e-01  -8.2233644303888881e-03 2.4241154746038598e-03 -1.5008083543500281e-01  -9.2001264250484594e-03 3.1496776387158298e-03 -1.9895582183584520e-01  -1.0062049351594849e-02 3.9407090665623569e-03 -2.5292880227971021e-01  -1.0810595029594474e-02 4.7883140701578380e-03 -3.1135959813120850e-01  -1.1447705866901709e-02 5.6838532259768908e-03 -3.7361720783630498e-01  -1.1976095734782111e-02 6.6189546850454950e-03 -4.3908324236683310e-01  -1.2399665580135159e-02 7.5855675270130232e-03 -5.0715739561680440e-01  -1.2724014829883768e-02 8.5760664546544185e-03 -5.7726563158351973e-01  -1.2957003649215468e-02 9.5834155466712253e-03 -6.4887152556296179e-01  -1.3109308059856889e-02 1.0601393989279563e-02 -7.2149087891267305e-01  -1.3194902634398009e-02 1.1624882611882449e-02 -7.9470937292726895e-01  -1.3231468240959290e-02 1.2650182325327948e-02 -8.6820274234383210e-01  -1.3241210220881997e-02 1.3675010579760548e-02 -9.4175925777919034e-01  0.0000000000000000e+00 0.0000000000000000e+00 0.0000000000000000e+00  -1.5905506159823997e-03 1.8068071205398859e-04 -4.7849600638652087e-03  -3.1877081051771730e-03 4.3989949094690368e-04 -1.8343431088805883e-02  -4.6614320767874732e-03 8.0928746609988059e-04 -4.0225010893863711e-02  -6.0167814969706683e-03 1.2786959532416222e-03 -6.9813681754496634e-02  -7.2526332129343417e-03 1.8399676817807771e-03 -1.0646108243049986e-01  -8.3692269976563139e-03 2.4845305211856428e-03 -1.4951374168400369e-01  -9.3674259693217483e-03 3.2034583429225078e-03 -1.9831968446847426e-01  -1.0248428072281298e-02 3.9878147890045207e-03 -2.5223174482971539e-01  -1.1013750694413092e-02 4.8288159288918690e-03 -3.1060965987410111e-01  -1.1665386204962788e-02 5.7178979945379993e-03 -3.7282231418845169e-01  -1.2206098748387106e-02 6.6467671073850891e-03 -4.3825115516324181e-01  -1.2639847739539207e-02 7.6074697045296754e-03 -5.0629563297177216e-01  -1.2972310266179371e-02 8.5925047650093136e-03 -5.7638134876871894e-01  -1.3211457079034327e-02 9.5949891195797766e-03 -6.4797135250786264e-01  -1.3368123323918655e-02 1.0608879028689235e-02 -7.2058071559101688e-01  -1.3456503608244611e-02 1.1629248195223246e-02 -7.9379415054543234e-01  -1.3494534958484638e-02 1.2652622817739149e-02 -8.6728614575278806e-01  -1.3504739063974040e-02 1.3677120735807234e-02 -9.4084329273684142e-01  0.0000000000000000e+00 0.0000000000000000e+00 0.0000000000000000e+00  -1.5929034277404757e-03 2.4503413646963733e-04 -4.6322965422795027e-03  -3.2193986387163941e-03 5.1556122022799599e-04 -1.8040856106817420e-02  -4.7254706859775428e-03 8.8721356608953926e-04 -3.9809892159522076e-02  -6.1105223348710365e-03 1.3534121166374471e-03 -6.9307208120897412e-02  -7.3731497746273396e-03 1.9090758450565038e-03 -1.0587623656237943e-01  -8.5138979755471980e-03 2.5471105273770348e-03 -1.4886042437557626e-01  -9.5337885388342668e-03 3.2592085267796351e-03 -1.9760663286819921e-01  -1.0434106361026537e-02 4.0366858072875978e-03 -2.5146719778700249e-01  -1.1216429430260142e-02 4.8708753929345679e-03 -3.0980157593348318e-01  -1.1882799399969944e-02 5.7532910707965047e-03 -3.7197841515970476e-01  -1.2436026443718455e-02 6.6757176514489419e-03 -4.3737888317678481e-01  -1.2880121592404323e-02 7.6302998517039948e-03 -5.0540204776629671e-01  -1.3220830776719535e-02 8.6096629006292939e-03 -5.7547297318339674e-01  -1.3466225217741540e-02 9.6070800488612072e-03 -6.4705397103666185e-01  -1.3627289374660116e-02 1.0616690684431374e-02 -7.1965913427891137e-01  -1.3718437554058644e-02 1.1633768086288920e-02 -7.9287193389216060e-01  -1.3757883151663999e-02 1.2655069843262274e-02 -8.6636534617947047e-01  -1.3768435768798902e-02 1.3679228667381025e-02 -9.3992415050494704e-01  0.0000000000000000e+00 0.0000000000000000e+00 0.0000000000000000e+00  -1.5824287818031969e-03 3.2488390785093612e-04 -4.3994849094088550e-03  -3.2397805529157317e-03 6.0094091313665050e-04 -1.7633174517166870e-02  -4.7795583626302979e-03 9.7211542476697025e-04 -3.9286662881082922e-02  -6.1951464394792936e-03 1.4337124577457883e-03 -6.8696961973606252e-02  -7.4853619235090828e-03 1.9829811831382584e-03 -1.0519523195881746e-01  -8.6511135384629637e-03 2.6139226300577944e-03 -1.4811991534228797e-01  -9.6935591650000354e-03 3.3187036517218845e-03 -1.9681583703885899e-01  -1.0614055094145881e-02 4.0888436249069612e-03 -2.5063445358302933e-01  -1.1414231890908249e-02 4.9157751158688942e-03 -3.0893476001123366e-01  -1.2096173660151258e-02 5.7910830019568130e-03