<?xml version="1.0"?>
<VTKFile type="UnstructuredGrid"  version="0.1"  >
<UnstructuredGrid>
<Piece  NumberOfPoints="760" NumberOfCells="3024">
<Points>
<DataArray  type="Float64"  NumberOfComponents="3"  format="ascii">0 0 0  0.05555555555555555 0 0  0.1111111111111111 0 0  0.1666666666666667 0 0  0.2222222222222222 0 0  0.2777777777777778 0 0  0.3333333333333333 0 0  0.3888888888888889 0 0  0.4444444444444444 0 0  0.5 0 0  0.5555555555555556 0 0  0.6111111111111112 0 0  0.6666666666666666 0 0  0.7222222222222222 0 0  0.7777777777777778 0 0  0.8333333333333334 0 0  0.8888888888888888 0 0  0.9444444444444444 0 0  1 0 0  0 0.01428571428571429 0  0.05555555555555555 0.01428571428571429 0  0.1111111111111111 0.01428571428571429 0  0.1666666666666667 0.01428571428571429 0  0.2222222222222222 0.01428571428571429 0  0.2777777777777778 0.01428571428571429 0  0.3333333333333333 0.01428571428571429 0  0.3888888888888889 0.01428571428571429 0  0.4444444444444444 0.01428571428571429 0  0.5 0.01428571428571429 0  0.5555555555555556 0.01428571428571429 0  0.6111111111111112 0.01428571428571429 0  0.6666666666666666 0.01428571428571429 0  0.7222222222222222 0.01428571428571429 0  0.7777777777777778 0.01428571428571429 0  0.8333333333333334 0.01428571428571429 0  0.8888888888888888 0.01428571428571429 0  0.9444444444444444 0.01428571428571429 0  1 0.01428571428571429 0  0 0.02857142857142857 0  0.05555555555555555 0.02857142857142857 0  0.1111111111111111 0.02857142857142857 0  0.1666666666666667 0.02857142857142857 0  0.2222222222222222 0.02857142857142857 0  0.2777777777777778 0.02857142857142857 0  0.3333333333333333 0.02857142857142857 0  0.3888888888888889 0.02857142857142857 0  0.4444444444444444 0.02857142857142857 0  0.5 0.02857142857142857 0  0.5555555555555556 0.02857142857142857 0  0.6111111111111112 0.02857142857142857 0  0.6666666666666666 0.02857142857142857 0  0.7222222222222222 0.02857142857142857 0  0.7777777777777778 0.02857142857142857 0  0.8333333333333334 0.02857142857142857 0  0.8888888888888888 0.02857142857142857 0  0.9444444444444444 0.02857142857142857 0  1 0.02857142857142857 0  0 0.04285714285714286 0  0.05555555555555555 0.04285714285714286 0  0.1111111111111111 0.04285714285714286 0  0.1666666666666667 0.04285714285714286 0  0.2222222222222222 0.04285714285714286 0  0.2777777777777778 0.04285714285714286 0  0.3333333333333333 0.04285714285714286 0  0.3888888888888889 0.04285714285714286 0  0.4444444444444444 0.04285714285714286 0  0.5 0.04285714285714286 0  0.5555555555555556 0.04285714285714286 0  0.6111111111111112 0.04285714285714286 0  0.6666666666666666 0.04285714285714286 0  0.7222222222222222 0.04285714285714286 0  0.7777777777777778 0.04285714285714286 0  0.8333333333333334 0.04285714285714286 0  0.8888888888888888 0.04285714285714286 0  0.9444444444444444 0.04285714285714286 0  1 0.04285714285714286 0  0 0.05714285714285715 0  0.05555555555555555 0.05714285714285715 0  0.1111111111111111 0.05714285714285715 0  0.1666666666666667 0.05714285714285715 0  0.2222222222222222 0.05714285714285715 0  0.2777777777777778 0.05714285714285715 0  0.3333333333333333 0.05714285714285715 0  0.3888888888888889 0.05714285714285715 0  0.4444444444444444 0.05714285714285715 0  0.5 0.05714285714285715 0  0.5555555555555556 0.05714285714285715 0  0.6111111111111112 0.05714285714285715 0  0.6666666666666666 0.05714285714285715 0  0.7222222222222222 0.05714285714285715 0  0.7777777777777778 0.05714285714285715 0  0.8333333333333334 0.05714285714285715 0  0.8888888888888888 0.05714285714285715 0  0.9444444444444444 0.05714285714285715 0  1 0.05714285714285715 0  0 0.07142857142857142 0  0.05555555555555555 0.07142857142857142 0  0.1111111111111111 0.07142857142857142 0  0.1666666666666667 0.07142857142857142 0  0.2222222222222222 0.07142857142857142 0  0.2777777777777778 0.07142857142857142 0  0.3333333333333333 0.07142857142857142 0  0.3888888888888889 0.07142857142857142 0  0.4444444444444444 0.07142857142857142 0  0.5 0.07142857142857142 0  0.5555555555555556 0.07142857142857142 0  0.6111111111111112 0.07142857142857142 0  0.6666666666666666 0.07142857142857142 0  0.7222222222222222 0.07142857142857142 0  0.7777777777777778 0.07142857142857142 0  0.8333333333333334 0.07142857142857142 0  0.8888888888888888 0.07142857142857142 0  0.9444444444444444 0.07142857142857142 0  1 0.07142857142857142 0  0 0.08571428571428573 0  0.05555555555555555 0.08571428571428573 0  0.1111111111111111 0.08571428571428573 0  0.1666666666666667 0.08571428571428573 0  0.2222222222222222 0.08571428571428573 0  0.2777777777777778 0.08571428571428573 0  0.3333333333333333 0.08571428571428573 0  0.3888888888888889 0.08571428571428573 0  0.4444444444444444 0.08571428571428573 0  0.5 0.08571428571428573 0  0.5555555555555556 0.08571428571428573 0  0.6111111111111112 0.08571428571428573 0  0.6666666666666666 0.08571428571428573 0  0.7222222222222222 0.08571428571428573 0  0.7777777777777778 0.08571428571428573 0  0.8333333333333334 0.08571428571428573 0  0.8888888888888888 0.08571428571428573 0  0.9444444444444444 0.08571428571428573 0  1 0.08571428571428573 0  0 0.1 0  0.05555555555555555 0.1 0  0.1111111111111111 0.1 0  0.1666666666666667 0.1 0  0.2222222222222222 0.1 0  0.2777777777777778 0.1 0  0.3333333333333333 0.1 0  0.3888888888888889 0.1 0  0.4444444444444444 0.1 0  0.5 0.1 0  0.5555555555555556 0.1 0  0.6111111111111112 0.1 0  0.6666666666666666 0.1 0  0.7222222222222222 0.1 0  0.7777777777777778 0.1 0  0.8333333333333334 0.1 0  0.8888888888888888 0.1 0  0.9444444444444444 0.1 0  1 0.1 0  0 0 0.01  0.05555555555555555 0 0.01  0.1111111111111111 0 0.01  0.1666666666666667 0 0.01  0.2222222222222222 0 0.01  0.2777777777777778 0 0.01  0.3333333333333333 0 0.01  0.3888888888888889 0 0.01  0.4444444444444444 0 0.01  0.5 0 0.01  0.5555555555555556 0 0.01  0.6111111111111112 0 0.01  0.6666666666666666 0 0.01  0.7222222222222222 0 0.01  0.7777777777777778 0 0.01  0.8333333333333334 0 0.01  0.8888888888888888 0 0.01  0.9444444444444444 0 0.01  1 0 0.01  0 0.01428571428571429 0.01  0.05555555555555555 0.01428571428571429 0.01  0.1111111111111111 0.01428571428571429 0.01  0.1666666666666667 0.01428571428571429 0.01  0.2222222222222222 0.01428571428571429 0.01  0.2777777777777778 0.01428571428571429 0.01  0.3333333333333333 0.01428571428571429 0.01  0.3888888888888889 0.01428571428571429 0.01  0.4444444444444444 0.01428571428571429 0.01  0.5 0.01428571428571429 0.01  0.5555555555555556 0.01428571428571429 0.01  0.6111111111111112 0.01428571428571429 0.01  0.6666666666666666 0.01428571428571429 0.01  0.7222222222222222 0.01428571428571429 0.01  0.7777777777777778 0.01428571428571429 0.01  0.8333333333333334 0.01428571428571429 0.01  0.8888888888888888 0.01428571428571429 0.01  0.9444444444444444 0.01428571428571429 0.01  1 0.01428571428571429 0.01  0 0.02857142857142857 0.01  0.05555555555555555 0.02857142857142857 0.01  0.1111111111111111 0.02857142857142857 0.01  0.1666666666666667 0.02857142857142857 0.01  0.2222222222222222 0.02857142857142857 0.01  0.2777777777777778 0.02857142857142857 0.01  0.3333333333333333 0.02857142857142857 0.01  0.3888888888888889 0.02857142857142857 0.01  0.4444444444444444 0.02857142857142857 0.01  0.5 0.02857142857142857 0.01  0.5555555555555556 0.02857142857142857 0.01  0.6111111111111112 0.02857142857142857 0.01  0.6666666666666666 0.02857142857142857 0.01  0.7222222222222222 0.02857142857142857 0.01  0.7777777777777778 0.02857142857142857 0.01  0.8333333333333334 0.02857142857142857 0.01  0.8888888888888888 0.02857142857142857 0.01  0.9444444444444444 0.02857142857142857 0.01  1 0.02857142857142857 0.01  0 0.04285714285714286 0.01  0.05555555555555555 0.04285714285714286 0.01  0.1111111111111111 0.04285714285714286 0.01  0.1666666666666667 0.04285714285714286 0.01  0.2222222222222222 0.04285714285714286 0.01  0.2777777777777778 0.04285714285714286 0.01  0.3333333333333333 0.04285714285714286 0.01  0.3888888888888889 0.04285714285714286 0.01  0.4444444444444444 0.04285714285714286 0.01  0.5 0.04285714285714286 0.01  0.5555555555555556 0.04285714285714286 0.01  0.6111111111111112 0.04285714285714286 0.01  0.6666666666666666 0.04285714285714286 0.01  0.7222222222222222 0.04285714285714286 0.01  0.7777777777777778 0.04285714285714286 0.01  0.8333333333333334 0.04285714285714286 0.01  0.8888888888888888 0.04285714285714286 0.01  0.9444444444444444 0.04285714285714286 0.01  1 0.04285714285714286 0.01  0 0.05714285714285715 0.01  0.05555555555555555 0.05714285714285715 0.01  0.1111111111111111 0.05714285714285715 0.01  0.1666666666666667 0.05714285714285715 0.01  0.2222222222222222 0.05714285714285715 0.01  0.2777777777777778 0.05714285714285715 0.01  0.3333333333333333 0.05714285714285715 0.01  0.3888888888888889 0.05714285714285715 0.01  0.4444444444444444 0.05714285714285715 0.01  0.5 0.05714285714285715 0.01  0.5555555555555556 0.05714285714285715 0.01  0.6111111111111112 0.05714285714285715 0.01  0.6666666666666666 0.05714285714285715 0.01  0.7222222222222222 0.05714285714285715 0.01  0.7777777777777778 0.05714285714285715 0.01  0.8333333333333334 0.05714285714285715 0.01  0.8888888888888888 0.05714285714285715 0.01  0.9444444444444444 0.05714285714285715 0.01  1 0.05714285714285715 0.01  0 0.07142857142857142 0.01  0.05555555555555555 0.07142857142857142 0.01  0.1111111111111111 0.07142857142857142 0.01  0.1666666666666667 0.07142857142857142 0.01  0.2222222222222222 0.07142857142857142 0.01  0.2777777777777778 0.07142857142857142 0.01  0.3333333333333333 0.07142857142857142 0.01  0.3888888888888889 0.07142857142857142 0.01  0.4444444444444444 0.07142857142857142 0.01  0.5 0.07142857142857142 0.01  0.5555555555555556 0.07142857142857142 0.01  0.6111111111111112 0.07142857142857142 0.01  0.6666666666666666 0.07142857142857142 0.01  0.7222222222222222 0.07142857142857142 0.01  0.7777777777777778 0.07142857142857142 0.01  0.8333333333333334 0.07142857142857142 0.01  0.8888888888888888 0.07142857142857142 0.01  
[...]
<PointData  Vectors="f_33"> 
<DataArray  type="Float64"  Name="f_33"  NumberOfComponents="3" format="ascii">0.0000000000000000e+00 0.0000000000000000e+00 0.0000000000000000e+00  1.6937602777583794e-04 4.3333091717818223e-05 2.0372699271357963e-04  2.9088356922820654e-04 1.2431209999345068e-04 6.5521225410735610e-04  3.7229743900042900e-04 2.5981226962054838e-04 1.2549506263039856e-03  4.1456356867639748e-04 4.4884551197227075e-04 1.8963433486857007e-03  4.2056050904280633e-04 6.8873894200410259e-04 2.4805262912141845e-03  3.9451439962204438e-04 9.7621634519015220e-04 2.9192600019619444e-03  3.4184381825173133e-04 1.3076099761019199e-03 3.1384049674675761e-03  2.6892450249603662e-04 1.6788998738172666e-03 3.0810344665310814e-03  1.8275858796815104e-04 2.0857351323043095e-03 2.7097526957524966e-03  9.0565599000351230e-05 2.5234728995606253e-03 2.0079154408121185e-03  -6.7714631750913777e-07 2.9872476618311916e-03 9.7954760799277255e-04  -8.4713630484341100e-05 3.4720748132427127e-03 -3.5215156253407947e-04  -1.5647657649711416e-04 3.9729880400726962e-03 -1.9477283476356123e-03  -2.1251462658928091e-04 4.4852074879382477e-03 -3.7557411096604348e-03  -2.5135603099590056e-04 5.0043346109873389e-03 -5.7182161362594524e-03  -2.7379749813640582e-04 5.5265699160567342e-03 -7.7770766366172927e-03  -2.8313053178427762e-04 6.0489506716491174e-03 -9.8813198646067833e-03  -2.8522056546395516e-04 6.5696719263428748e-03 -1.1994945281382667e-02  0.0000000000000000e+00 0.0000000000000000e+00 0.0000000000000000e+00  1.4759844422551499e-04 3.5218518483924957e-05 2.0525776605144618e-04  2.5812260740188146e-04 1.1861050537613904e-04 6.5323645972489961e-04  3.2821916880340743e-04 2.5628308623836535e-04 1.2487751053071945e-03  3.5972200338173183e-04 4.4736576834818935e-04 1.8868593180501876e-03  3.5555922727233504e-04 6.8909501993893161e-04 2.4691423975108516e-03  3.1993460928311118e-04 9.7812721286434689e-04 2.9075282226801707e-03  2.5825231774933400e-04 1.3107413296012289e-03 3.1278506467018979e-03  1.7689554915370403e-04 1.6828810998546263e-03 3.0730485888477124e-03  8.2897202364932038e-05 2.0901803878206246e-03 2.7055088125711572e-03  -1.6471736740914940e-05 2.5280051705864901e-03 2.0083031613119177e-03  -1.1416727502843849e-04 2.9915241823707099e-03 9.8512302099495975e-04  -2.0385931604091916e-04 3.4758121557357958e-03 -3.4119594515211302e-04  -2.8040862897683736e-04 3.9759852654535259e-03 -1.9315715608846579e-03  -3.4030457354320521e-04 4.4873658932357121e-03 -3.7349177707725217e-03  -3.8203933546858193e-04 5.0056728362723240e-03 -5.6935750496698882e-03  -4.0640504317845629e-04 5.5272336399776840e-03 -7.7497109311564115e-03  -4.1673310168680413e-04 6.0492124108797634e-03 -9.8524561485397819e-03  -4.1915406717429893e-04 6.5698100305354333e-03 -1.1965736438759400e-02  0.0000000000000000e+00 0.0000000000000000e+00 0.0000000000000000e+00  1.3109910763701201e-04 2.9592754614661862e-05 2.0400805394991332e-04  2.2757198060046230e-04 1.1391701899960481e-04 6.4933709791634110e-04  2.8482847252651509e-04 2.5346351740161222e-04 1.2417909390738404e-03  3.0429606405675660e-04 4.4648383718535128e-04 1.8777811502781615e-03  2.8890791847569993e-04 6.9001752708127534e-04 2.4592739078438631e-03  2.4286120815648565e-04 9.8060378784673320e-04 2.8982477174927458e-03  1.7156861813884874e-04 1.3144487186472834e-03 3.1204678411602370e-03  8.1436499418903108e-05 1.6874505210343852e-03 3.0687116395436888e-03  -2.0469568576077154e-05 2.0952222532632826e-03 2.7051363423045787e-03  -1.2684209594278611e-04 2.5331347192561011e-03 2.0125343279701348e-03  -2.3060322101763024e-04 2.9963879797384944e-03 9.9428542860364446e-04  -3.2539885723751520e-04 3.4801142906116110e-03 -3.2709889310348391e-04  -4.0608340142864348e-04 3.9795117412773475e-03 -1.9128523976353932e-03  -4.6916522983614367e-04 4.4900056319944984e-03 -3.7121750806757021e-03  -5.1318793852904400e-04 5.0074336544718209e-03 -5.6676418041362326e-03  -5.3903128793103983e-04 5.5282519653055513e-03 -7.7215800454669961e-03  -5.5014809215184635e-04 6.0497560562014930e-03 -9.8231757903670010e-03  -5.5284952525954973e-04 6.5702062647915943e-03 -1.1936234232133537e-02  0.0000000000000000e+00 0.0000000000000000e+00 0.0000000000000000e+00  1.1606572624492145e-04 2.5843036789622401e-05 2.0110650768109917e-04  1.9794233528386938e-04 1.1054268238399471e-04 6.4376365965900342e-04  2.4196377018609720e-04 2.5163714399645959e-04 1.2342054363159811e-03  2.4909162402526262e-04 4.4645282650924696e-04 1.8693266268318613e-03  2.2219916084796067e-04 6.9171086187002067e-04 2.4512062195517349e-03  1.6549046572851889e-04 9.8379811167773903e-04 2.8917834295105124e-03  8.4398429479107511e-05 1.3188305518230857e-03 3.1166927011100154e-03  -1.4639890424217794e-05 1.6926532657256085e-03 3.0685133021434107e-03  -1.2452275376225475e-04 2.1008550034353197e-03 2.7091562186039374e-03  -2.3790694181683624e-04 2.5388096841452443e-03 2.0211369356508248e-03  -3.4768590181502346e-04 3.0017480109085322e-03 1.0075458893294346e-03  -4.4749108889742903e-04 3.4848599173356262e-03 -3.0938815944589698e-04  -5.3218412971920478e-04 3.9834263877033373e-03 -1.8911553252176042e-03  -5.9830960708613472e-04 4.4929774247487531e-03 -3.6871664271328560e-03  -6.4448282405478430e-04 5.0094719328296023e-03 -5.6401437066772118e-03  -6.7169389928891017e-04 5.5294965473711875e-03 -7.6924816282612470e-03  -6.8353448926751438e-04 6.0504796869975631e-03 -9.7933301923914824e-03  -6.8648539753191540e-04 6.5707935569586486e-03 -1.1906294040301533e-02  0.0000000000000000e+00 0.0000000000000000e+00 0.0000000000000000e+00  1.0130074215900032e-04 2.3387431892834526e-05 1.9680657575176194e-04  1.6871390383795993e-04 1.0838122900671845e-04 6.3673107558944115e-04  1.9947825930357823e-04 2.5083740753357509e-04 1.2260682609979766e-03  1.9421620092485080e-04 4.4733284426163417e-04 1.8614960471381103e-03  1.5574271394450765e-04 6.9423539266272479e-04 2.4449284604077018e-03  8.8282790656576458e-05 9.8775906333171157e-04 2.8881313667485473e-03  -2.6991394711119560e-06 1.3239196656023428e-03 3.1165349860366592e-03  -1.1072837761893924e-04 1.6985041556163757e-03 3.0724790202231751e-03  -2.2866200427318787e-04 2.1070747065524897e-03 2.7176092154962144e-03  -3.4911713132670122e-04 2.5450075121398654e-03 2.0341655085910093e-03  -4.6495553793191149e-04 3.0075639885284288e-03 1.0249703440827918e-03  -5.6979231502259900e-04 3.4899925763670374e-03 -2.8798918216069869e-04  -6.5849563004067061e-04 3.9876587210641544e-03 -1.8664001553941123e-03  -7.2764693888893489e-04 4.4961994563731487e-03 -3.6598088983706791e-03  -7.7593560105410813e-04 5.0116979530263981e-03 -5.6109975913751896e-03  -8.0446746700581380e-04 5.5308742327044259e-03 -7.6623340782493088e-03  -8.1698141365558737e-04 6.0512916971729074e-03 -9.7628411355627932e-03  -8.2013921099044409e-04 6.5714800704097728e-03 -1.1875856556247037e-02  0.0000000000000000e+00 0.0000000000000000e+00 0.0000000000000000e+00  8.6144340704599306e-05 2.1745186071637362e-05 1.9099801799547886e-04  1.3943801499980937e-04 1.0722220738894399e-04 6.2824724389769508e-04  1.5711576339988602e-04 2.5102414948178657e-04 1.2173908579497501e-03  1.3954957695475824e-04 4.4915639802370160e-04 1.8542977900219530e-03  8.9534556977334222e-05 6.9765593455923646e-04 2.4404515020497179e-03  1.1330506425134267e-05 9.9256543969383553e-04 2.8873098792222386e-03  -8.9558884166290406e-05 1.3297991573334304e-03 3.1200221599250416e-03  -2.0661648282838810e-04 1.7050840166615163e-03 3.0806446709317633e-03  -3.3265376722677021e-04 2.1139543873244706e-03 2.7305376402862879e-03  -4.6024304999084912e-04 2.5517884148289647e-03 2.0516661043801371e-03  -5.8220840126940038e-04 3.0138788455315274e-03 1.0466055742049552e-03  -6.9214174906657327e-04 3.4955342033131096e-03 -2.6285756006010725e-04  -7.8491055102314637e-04 3.9922069461312834e-03 -1.8385477820475750e-03  -8.5712581291649836e-04 4.4996447225819879e-03 -3.6300710713628431e-03  -9.0754409713547678e-04 5.0140598051529985e-03 -5.5801810172811774e-03  -9.3738319262834553e-04 5.5323115167278964e-03 -7.6311233515791860e-03  -9.5053542750375393e-04 6.0521038589289988e-03 -9.7317021052910884e-03  -9.5385878752150637e-04 6.5721647537872567e-03 -1.1844931832979516e-02  0.0000000000000000e+00 0.0000000000000000e+00 0.0000000000000000e+00  6.9637323558378452e-05 2.0535809275223382e-05 1.8323866626305884e-04  1.0932675125083102e-04 1.0687211599803063e-04 6.1818618230247721e-04  1.1433100825342456e-04 2.5215185809132927e-04 1.2082147736852721e-03  8.4784228433162800e-05 4.5195607892658385e-04 1.8478490076841480e-03  2.3501188539453876e-05 7.0204552385166744e-04 2.4379358501956682e-03  -6.5225425669749503e-05 9.9831176246730586e-04 2.8895065093630296e-03  -1.7585868224973618e-04 1.3365739611689088e-03 3.1273566059161150e-03  -3.0184339002758010e-04 1.7125001667225679e-03 3.0932158702291438e-03  -4.3594653485759256e-04 2.1215967174254974e-03 2.7481388380332207e-03  -5.7069261765089270e-04 2.5592438257347684e-03 2.0738168149826612e-03  -6.9886057459095320e-04 3.0207666893650171e-03 1.0726006346205147e-03  -8.1400743277851989e-04 3.5015362796817716e-03 -2.3388113497262340e-04  -9.1098428669546911e-04 3.9970957359140380e-03 -1.8075281755940242e-03  -9.8641275747785766e-04 4.5033083393124567e-03 -3.5979269425547708e-03  -1.0390951405673387e-03 5.0165221912806396e-03 -5.5477095964460337e-03  -1.0703395872904942e-03 5.5337454124331550e-03 -7.5988981590052671e-03  -1.0841848209645019e-03 6.0528317210424964e-03 -9.6999803960229770e-03  -1.0876755338927416e-03 6.5727452357633581e-03 -1.1813595420005481e-02  0.0000000000000000e+00 0.0000000000000000e+00 0.0000000000000000e+00  4.8628762901738564e-05 2.0023369141206339e-05 1.7360779859952659e-04  7.5841791630777296e-05 1.0749699521753835e-04 6.0704144379793612e-04  6.9466383221378325e-05 2.5430536874250937e-04 1.1991244434919376e-03  2.9208918160156959e-05 4.5572282352484384e-04 1.8426977015391958e-03  -4.2140105626113717e-05 7.0729981498968651e-04 2.4378448746561802e-03  -1.4032402485937871e-04 1.0048077285978604e-03 2.8950781405006824e-03  -2.5982770580090461e-04 1.3439837738791584e-03 3.1387799096197107e-03  -3.9409726969524052e-04 1.7204423033762915e-03 3.1103177593465878e-03  -5.3587887748137992e-04 2.1296633021722637e-03 2.7704261814959687e-03  -6.7765609632403111e-04 2.5670292418854758e-03 2.1005290662604401e-03  -8.1215176343865897e-04 3.0278973010923059e-03 1.1027794726062759e-03  -9.3285886437112823e-04 3.5077000931564551e-03 -2.0130497343087570e-04  -1.0345654541113714e-03 4.0020704587795004e-03 -1.7736338159024653e-03  -1.1138411464268348e-03 4.5069863330298469e-03 -3.5636926472673775e-03  -1.1694577569858543e-03 5.0189311637053209e-03 -5.5138980084674435e-03  -1.2027251812553085e-03 5.5350648853060257e-03 -7.5659444912424406e-03  -1.2177463494632795e-03 6.0533955518191811e-03 -9.6678863459546543e-03  -1.2216385390548324e-03 6.5731507208785173e-03 -1.1781939404126746e-02  0.0000000000000000e+00 0.0000000000000000e+00 0.0000000000000000e+00  1.0763607407724927e-04 4.1717701308552363e-05 1.9645334777849846e-04  1.9530788086749736e-04 1.2522845167867985e-04 6.4977006506851615e-04  2.6152782675438929e-04 2.6405539711990772e-04 1.2513503868959806e-03  3.0672959975349052e-04 4.5570996552159643e-04 1.8945419853701724e-03  3.3219883679419044e-04 6.9718000938422228e-04 2.4803920250045372e-03  3.3991423221079597e-04 9.8509332288466956e-04 2.9205948770011023e-03  3.3245072902250640e-04 1.3157981286124661e-03 3.1409547460942645e-03  3.1286567844327574e-04 1.6853657229798768e-03 3.0845008345298163e-03  2.8454547556027273e-04 2.0895970903629679e-03 2.7138092531679564e-03  2.5101533744636875e-04 2.5240513925736249e-03 2.0122269704509060e-03  2.1572421150986543e-04 2.9841037662202904e-03 9.8379147493709001e-04  1.8181925579610137e-04 3.4650351602276636e-03 -3.4826325657594682e-04  1.5192459829803143e-04 3.9621538816241274e-03 -1.9444272496738000e-03  1.2793802034501730e-04 4.4709463816301215e-03 -3.7531829963781313e-03  1.1085674216173514e-04 4.9872534646207027e-03 -5.7164641497190654e-03  1.0063839791219136e-04 5.5074669836570941e-03 -7.7760873932305619e-03  9.6094478079393028e-05 6.0287372000706711e-03 -9.8809299121222927e-03  9.4912277137293856e-05 6.5492385725483002e-03 -1.1994762919956483e-02  0.0000000000000000e+00 0.0000000000000000e+00 0.0000000000000000e+00  8.9544217428238495e-05 3.4718157299919294e-05 1.9780046147844377e-04  1.6523656248206963e-04 1.2026519572996360e-04 6.4820219874880838e-04  2.1847520815011716e-04 2.6046098226478027e-04 1.2455802071122267e-03  2.5135485344100891e-04 4.5343107337107497e-04 1.8854186604639227e-03  2.6526512417128934e-04 6.9610434753592616e-04 2.4693161408707530e-03  2.6222263901141209e-04 9.8506595383025634e-04 2.9091209154885611e-03  2.4483805570779953e-04 1.3166303266671953e-03 3.1306136732164314e-03  2.1621213477037988e-04 1.6868445913177843e-03 3.0766902134993445e-03  1.7978016897471548e-04 2.0914973088556154e-03 2.7097092499368592e-03  1.3911643303200264e-04 2.5261487295312598e-03 2.0127333175366199e-03  9.7712167517781780e-05 2.9861895088709556e-03 9.8946554146953449e-04  5.8742215476738944e-05 3.4669305259751892e-03 -3.3722476350820946e-04  2.4835583608235975e-05 3.9637234983160062e-03 -1.9282004108060818e-03  -2.1359025402001722e-06 4.4721100240313356e-03 -3.7323008080435956e-03  -2.1239027417510273e-05 4.9879954515788180e-03 -5.6917752300308464e-03  -3.2623683480055155e-05 5.5078431290510850e-03 -7.7486865183220444e-03  -3.7640490698637084e-05 6.0288783486924166e-03 -9.8520468762031133e-03  -3.8954365620026435e-05 6.5492886680091457e-03 -1.1965589284146740e-02  0.0000000000000000e+00 0.0000000000000000e+00 0.0000000000000000e+00  7.4055275374295559e-05 3.0466644348444158e-05 1.9727906872283674e-04  1.3553878606744268e-04 1.1668209813106080e-04 6.4491056869587203e-04  1.7557574315608444e-04 2.5798408438248223e-04 1.2392749840106384e-03  1.9597099263062874e-04 4.5207126685889383e-04 1.8770063575097920e-03  1.9821949685436700e-04 6.9578294459311709e-04 2.4600753445187915e-03  1.8436464916991535e-04 9.8564927785253407e-04 2.9004196841711984e-03  1.5704802013650473e-04 1.3179474048693395e-03 3.1237564675294896e-03  1.1940946604507576e-04 1.6887000775887119e-03 3.0728215637562807e-03  7.4927074835476990e-05 2.0936839267014888e-03 2.7097449265859135e-03  2.7215603755108154e-05 2.5284604694003152e-03 2.0173103750596244e-03  -2.0202409446223685e-05 2.9884353833637247e-03 9.9891049170470147e-04  -6.4137441417832163e-05 3.4689482214558835e-03 -3.2290824484990766e-04  -1.0197001086717036e-04 3.9653921308547497e-03 -1.9093228560565409e-03  -1.3186931779291786e-04 4.4733611985630604e-03 -3.7094567230797921e-03  -1.5298103476839037e-04 4.9888218799502308e-03 -5.6657910971396278e-03  -1.6557568542253207e-04 5.5083047018682392e-03 -7.7205461291851322e-03  -1.7116773330591939e-04 6.0291070272554086e-03 -9.8227865924127144e-03  -1.7267164694881624e-04 6.5494495530114888e-03 -1.1936129870926999e-02  0.0000000000000000e+00 0.0000000000000000e+00 0.0000000000000000e+00  5.9680580329899761e-05 2.7882199631433642e-05 1.9516825766886672e-04  1.0640281636448960e-04 1.1435918124792306e-04 6.4000880386971110e-04  1.3298656609705766e-04 2.5653507857213199e-04 1.2323664135584329e-03  1.4076288864678417e-04 4.5158686998149008e-04 1.8692107699725840e-03  1.3123476611474034e-04 6.9621935596024087e-04 2.4526302362951552e-03  1.0647356217469171e-04 9.8689049945430564e-04 2.8945326646445872e-03  6.9155227795428419e-05 1.3198329425225966e-03 3.1205079699981094e-03  2.2460650491552728e-05 1.6910426244569992e-03 3.0730953986527402e-03  -3.0089223421630463e-05 2.0962836665492797e-03 2.7141794069744200e-03  -8.4841059897257818e-05 2.5311188478644394e-03 2.0262676484423276e-03  -1.3824489817487056e-04 2.9909689846707708e-03 1.0124643078418896e-03  -1.8710227017940619e-04 3.4712024131610718e-03 -3.0496546828087640e-04  -2.2881060116715924e-04 3.9672537978682164e-03 -1.8874532990421392e-03  -2.6158884393351220e-04 4.4747697695893939e-03 -3.6843312682272177e-03  -2.8467138138207350e-04 4.9897777256393471e-03 -5.6382255571397130e-03  -2.9845979192716458e-04 5.5088743140287990e-03 -7.6914207785942533e-03  -3.0463630238281925e-04 6.0294277115950558e-03 -9.7929442427472698e-03  -3.0633099653437786e-04 6.5497213223405281e-03 -1.1906214165700113e-02  0.0000000000000000e+00 0.0000000000000000e+00 0.0000000000000000e+00  4.5597714271647150e-05 2.6527801083988460e-05 1.9173735713458036e-04  7.7554408112901095e-05 1.1321364559562884e-04 6.3371489913042968e-04  9.0603525326340005e-05 2.5611169671264033e-04 1.2249195025238635e-03  8.5726096020785736e-05 4.5202164292947988e-04 1.8620355402706591e-03  6.4381639034571223e-05 6.9748708854585348e-04 2.4469661555102705e-03  2.8671394900888290e-05 9.8888365571106105e-04 2.8914469174348301e-03  -1.8689650645245201e-05 1.3223945201875373e-03 3.1208653860530780e-03  -7.4476843545083417e-05 1.6939865758103226e-03 3.0775221971041321e-03  -1.3512458719021358e-04 2.0994107215403651e-03 2.7230371791515948e-03  -1.9693976965986905e-04 2.5342311030579988e-03 2.0396431070661535e-03  -2.5634434587531221e-04 2.9938843068806720e-03 1.0301771026808369e-03  -3.1013080972164172e-04 3.4737685166982050e-03 -2.8333608771434748e-04  -3.5571399857211629e-04 3.9693613827896691e-03 -1.8625234433141710e-03  -3.9136374078423716e-04 4.4763639346108519e-03 -3.6568506259996606e-03  -4.1640503385701128e-04 4.9908666390537700e-03 -5.6090015595107491e-03  -4.3137409732879248e-04 5.5095338905444009e-03 -7.6612320192497316e-03  -4.3812479649805400e-04 6.0298056575639114e-03 -9.7624415516106098e-03  -4.3999308304883253e-04 6.5500594752814943e-03 -1.1875780846719853e-02  0.0000000000000000e+00 0.0000000000000000e+00 0.0000000000000000e+00  3.1294842004288784e-05 2.6089342234891241e-05 1.8689722965122783e-04  4.8645601503424867e-05 1.1310990668846029e-04 6.2602344893235133e-04  4.8219546502574470e-05 2.5667627737795216e-04 1.2169399202955759e-03  3.0730159367998038e-05 4.5338613157337428e-04 1.8554729205270367e-03  -2.4051336093599838e-06 6.9962615324988887e-04 2.4430678841206848e-03  -4.9053427093746592e-05 9.9168819493152872e-04 2.8911477534920771e-03  -1.0645804190245906e-04 1.3257045791740378e-03 3.1248187967163792e-03  -1.7134886602435969e-04 1.6976119035568549e-03 3.0860985154361016e-03  -2.4011391669723168e-04 2.1031472148767467e-03 2.7363215471543365e-03  -3.0901805349446817e-04 2.5378761067959706e-03 2.0574461827864697e-03  -3.7445231876140220e-04 2.9972517427083916e-03 1.0520631662194967e-03  -4.3319685183210919e-04 3.4767036936264682e-03 -2.5800273368824098e-04  -4.8268024943952143e-04 3.9717548646557932e-03 -1.8345149841682944e-03  -5.2121940691288182e-04 4.4781636800020948e-03 -3.6269978316516623e-03  -5.4822626819070626e-04 4.9920874317710782e-03 -5.5781054000430602e-03  -5.6437000033412977e-04 5.5102622921012452e-03 -7.6299700327220055e-03  -5.7168118016697942e-04 6.0302030030726927e-03 -9.7312728792549180e-03  -5.7369998839211240e-04 6.5504103722487479e-03 -1.1844839174852491e-02  0.0000000000000000e+00 0.0000000000000000e+00 0.0000000000000000e+00  1.6216124977454335e-05 2.6269548006494121e-05 1.8020805078720201e-04  1.9196742258841902e-05 1.1389726130517292e-04 6.1675854567156687e-04  5.4746349204971987e-06 2.5819330070799153e-04 1.2084143885345989e-03  -2.4488844826678487e-05 4.5571683709713103e-04 1.8495747138467797e-03  -6.9293250987741023e-05 7.0272241990573727e-04 2.4410208938038208e-03  -1.2677716453102624e-04 9.9542501246650404e-04 2.8937419411526680e-03  -1.9414617943948814e-04 1.3299078617791567e-03 3.1324884813595370e-03  -2.6808729146363624e-04 1.7020769216093085e-03 3.0989508286409883e-03  -3.4494295752739330e-04 2.1076548809531221e-03 2.7541575823069597e-03  -4.2093486025875836e-04 2.5422090803094571e-03 2.0797928215189796e-03  -4.9241996463780119e-04 3.0012107574952903e-03 1.0782218947709889e-03  -5.5616095429981711e-04 3.4801237022628068e-03 -2.2888919473765850e-04  -6.0959333251670413e-04 3.9745202423520374e-03 -1.8033802265231863e-03  -6.5107273322994501e-04 4.4802216526384732e-