<?xml version="1.0"?>
<VTKFile type="UnstructuredGrid"  version="0.1"  >
<UnstructuredGrid>
<Piece  NumberOfPoints="760" NumberOfCells="3024">
<Points>
<DataArray  type="Float64"  NumberOfComponents="3"  format="ascii">0 0 0  0.05555555555555555 0 0  0.1111111111111111 0 0  0.1666666666666667 0 0  0.2222222222222222 0 0  0.2777777777777778 0 0  0.3333333333333333 0 0  0.3888888888888889 0 0  0.4444444444444444 0 0  0.5 0 0  0.5555555555555556 0 0  0.6111111111111112 0 0  0.6666666666666666 0 0  0.7222222222222222 0 0  0.7777777777777778 0 0  0.8333333333333334 0 0  0.8888888888888888 0 0  0.9444444444444444 0 0  1 0 0  0 0.01428571428571429 0  0.05555555555555555 0.01428571428571429 0  0.1111111111111111 0.01428571428571429 0  0.1666666666666667 0.01428571428571429 0  0.2222222222222222 0.01428571428571429 0  0.2777777777777778 0.01428571428571429 0  0.3333333333333333 0.01428571428571429 0  0.3888888888888889 0.01428571428571429 0  0.4444444444444444 0.01428571428571429 0  0.5 0.01428571428571429 0  0.5555555555555556 0.01428571428571429 0  0.6111111111111112 0.01428571428571429 0  0.6666666666666666 0.01428571428571429 0  0.7222222222222222 0.01428571428571429 0  0.7777777777777778 0.01428571428571429 0  0.8333333333333334 0.01428571428571429 0  0.8888888888888888 0.01428571428571429 0  0.9444444444444444 0.01428571428571429 0  1 0.01428571428571429 0  0 0.02857142857142857 0  0.05555555555555555 0.02857142857142857 0  0.1111111111111111 0.02857142857142857 0  0.1666666666666667 0.02857142857142857 0  0.2222222222222222 0.02857142857142857 0  0.2777777777777778 0.02857142857142857 0  0.3333333333333333 0.02857142857142857 0  0.3888888888888889 0.02857142857142857 0  0.4444444444444444 0.02857142857142857 0  0.5 0.02857142857142857 0  0.5555555555555556 0.02857142857142857 0  0.6111111111111112 0.02857142857142857 0  0.6666666666666666 0.02857142857142857 0  0.7222222222222222 0.02857142857142857 0  0.7777777777777778 0.02857142857142857 0  0.8333333333333334 0.02857142857142857 0  0.8888888888888888 0.02857142857142857 0  0.9444444444444444 0.02857142857142857 0  1 0.02857142857142857 0  0 0.04285714285714286 0  0.05555555555555555 0.04285714285714286 0  0.1111111111111111 0.04285714285714286 0  0.1666666666666667 0.04285714285714286 0  0.2222222222222222 0.04285714285714286 0  0.2777777777777778 0.04285714285714286 0  0.3333333333333333 0.04285714285714286 0  0.3888888888888889 0.04285714285714286 0  0.4444444444444444 0.04285714285714286 0  0.5 0.04285714285714286 0  0.5555555555555556 0.04285714285714286 0  0.6111111111111112 0.04285714285714286 0  0.6666666666666666 0.04285714285714286 0  0.7222222222222222 0.04285714285714286 0  0.7777777777777778 0.04285714285714286 0  0.8333333333333334 0.04285714285714286 0  0.8888888888888888 0.04285714285714286 0  0.9444444444444444 0.04285714285714286 0  1 0.04285714285714286 0  0 0.05714285714285715 0  0.05555555555555555 0.05714285714285715 0  0.1111111111111111 0.05714285714285715 0  0.1666666666666667 0.05714285714285715 0  0.2222222222222222 0.05714285714285715 0  0.2777777777777778 0.05714285714285715 0  0.3333333333333333 0.05714285714285715 0  0.3888888888888889 0.05714285714285715 0  0.4444444444444444 0.05714285714285715 0  0.5 0.05714285714285715 0  0.5555555555555556 0.05714285714285715 0  0.6111111111111112 0.05714285714285715 0  0.6666666666666666 0.05714285714285715 0  0.7222222222222222 0.05714285714285715 0  0.7777777777777778 0.05714285714285715 0  0.8333333333333334 0.05714285714285715 0  0.8888888888888888 0.05714285714285715 0  0.9444444444444444 0.05714285714285715 0  1 0.05714285714285715 0  0 0.07142857142857142 0  0.05555555555555555 0.07142857142857142 0  0.1111111111111111 0.07142857142857142 0  0.1666666666666667 0.07142857142857142 0  0.2222222222222222 0.07142857142857142 0  0.2777777777777778 0.07142857142857142 0  0.3333333333333333 0.07142857142857142 0  0.3888888888888889 0.07142857142857142 0  0.4444444444444444 0.07142857142857142 0  0.5 0.07142857142857142 0  0.5555555555555556 0.07142857142857142 0  0.6111111111111112 0.07142857142857142 0  0.6666666666666666 0.07142857142857142 0  0.7222222222222222 0.07142857142857142 0  0.7777777777777778 0.07142857142857142 0  0.8333333333333334 0.07142857142857142 0  0.8888888888888888 0.07142857142857142 0  0.9444444444444444 0.07142857142857142 0  1 0.07142857142857142 0  0 0.08571428571428573 0  0.05555555555555555 0.08571428571428573 0  0.1111111111111111 0.08571428571428573 0  0.1666666666666667 0.08571428571428573 0  0.2222222222222222 0.08571428571428573 0  0.2777777777777778 0.08571428571428573 0  0.3333333333333333 0.08571428571428573 0  0.3888888888888889 0.08571428571428573 0  0.4444444444444444 0.08571428571428573 0  0.5 0.08571428571428573 0  0.5555555555555556 0.08571428571428573 0  0.6111111111111112 0.08571428571428573 0  0.6666666666666666 0.08571428571428573 0  0.7222222222222222 0.08571428571428573 0  0.7777777777777778 0.08571428571428573 0  0.8333333333333334 0.08571428571428573 0  0.8888888888888888 0.08571428571428573 0  0.9444444444444444 0.08571428571428573 0  1 0.08571428571428573 0  0 0.1 0  0.05555555555555555 0.1 0  0.1111111111111111 0.1 0  0.1666666666666667 0.1 0  0.2222222222222222 0.1 0  0.2777777777777778 0.1 0  0.3333333333333333 0.1 0  0.3888888888888889 0.1 0  0.4444444444444444 0.1 0  0.5 0.1 0  0.5555555555555556 0.1 0  0.6111111111111112 0.1 0  0.6666666666666666 0.1 0  0.7222222222222222 0.1 0  0.7777777777777778 0.1 0  0.8333333333333334 0.1 0  0.8888888888888888 0.1 0  0.9444444444444444 0.1 0  1 0.1 0  0 0 0.01  0.05555555555555555 0 0.01  0.1111111111111111 0 0.01  0.1666666666666667 0 0.01  0.2222222222222222 0 0.01  0.2777777777777778 0 0.01  0.3333333333333333 0 0.01  0.3888888888888889 0 0.01  0.4444444444444444 0 0.01  0.5 0 0.01  0.5555555555555556 0 0.01  0.6111111111111112 0 0.01  0.6666666666666666 0 0.01  0.7222222222222222 0 0.01  0.7777777777777778 0 0.01  0.8333333333333334 0 0.01  0.8888888888888888 0 0.01  0.9444444444444444 0 0.01  1 0 0.01  0 0.01428571428571429 0.01  0.05555555555555555 0.01428571428571429 0.01  0.1111111111111111 0.01428571428571429 0.01  0.1666666666666667 0.01428571428571429 0.01  0.2222222222222222 0.01428571428571429 0.01  0.2777777777777778 0.01428571428571429 0.01  0.3333333333333333 0.01428571428571429 0.01  0.3888888888888889 0.01428571428571429 0.01  0.4444444444444444 0.01428571428571429 0.01  0.5 0.01428571428571429 0.01  0.5555555555555556 0.01428571428571429 0.01  0.6111111111111112 0.01428571428571429 0.01  0.6666666666666666 0.01428571428571429 0.01  0.7222222222222222 0.01428571428571429 0.01  0.7777777777777778 0.01428571428571429 0.01  0.8333333333333334 0.01428571428571429 0.01  0.8888888888888888 0.01428571428571429 0.01  0.9444444444444444 0.01428571428571429 0.01  1 0.01428571428571429 0.01  0 0.02857142857142857 0.01  0.05555555555555555 0.02857142857142857 0.01  0.1111111111111111 0.02857142857142857 0.01  0.1666666666666667 0.02857142857142857 0.01  0.2222222222222222 0.02857142857142857 0.01  0.2777777777777778 0.02857142857142857 0.01  0.3333333333333333 0.02857142857142857 0.01  0.3888888888888889 0.02857142857142857 0.01  0.4444444444444444 0.02857142857142857 0.01  0.5 0.02857142857142857 0.01  0.5555555555555556 0.02857142857142857 0.01  0.6111111111111112 0.02857142857142857 0.01  0.6666666666666666 0.02857142857142857 0.01  0.7222222222222222 0.02857142857142857 0.01  0.7777777777777778 0.02857142857142857 0.01  0.8333333333333334 0.02857142857142857 0.01  0.8888888888888888 0.02857142857142857 0.01  0.9444444444444444 0.02857142857142857 0.01  1 0.02857142857142857 0.01  0 0.04285714285714286 0.01  0.05555555555555555 0.04285714285714286 0.01  0.1111111111111111 0.04285714285714286 0.01  0.1666666666666667 0.04285714285714286 0.01  0.2222222222222222 0.04285714285714286 0.01  0.2777777777777778 0.04285714285714286 0.01  0.3333333333333333 0.04285714285714286 0.01  0.3888888888888889 0.04285714285714286 0.01  0.4444444444444444 0.04285714285714286 0.01  0.5 0.04285714285714286 0.01  0.5555555555555556 0.04285714285714286 0.01  0.6111111111111112 0.04285714285714286 0.01  0.6666666666666666 0.04285714285714286 0.01  0.7222222222222222 0.04285714285714286 0.01  0.7777777777777778 0.04285714285714286 0.01  0.8333333333333334 0.04285714285714286 0.01  0.8888888888888888 0.04285714285714286 0.01  0.9444444444444444 0.04285714285714286 0.01  1 0.04285714285714286 0.01  0 0.05714285714285715 0.01  0.05555555555555555 0.05714285714285715 0.01  0.1111111111111111 0.05714285714285715 0.01  0.1666666666666667 0.05714285714285715 0.01  0.2222222222222222 0.05714285714285715 0.01  0.2777777777777778 0.05714285714285715 0.01  0.3333333333333333 0.05714285714285715 0.01  0.3888888888888889 0.05714285714285715 0.01  0.4444444444444444 0.05714285714285715 0.01  0.5 0.05714285714285715 0.01  0.5555555555555556 0.05714285714285715 0.01  0.6111111111111112 0.05714285714285715 0.01  0.6666666666666666 0.05714285714285715 0.01  0.7222222222222222 0.05714285714285715 0.01  0.7777777777777778 0.05714285714285715 0.01  0.8333333333333334 0.05714285714285715 0.01  0.8888888888888888 0.05714285714285715 0.01  0.9444444444444444 0.05714285714285715 0.01  1 0.05714285714285715 0.01  0 0.07142857142857142 0.01  0.05555555555555555 0.07142857142857142 0.01  0.1111111111111111 0.07142857142857142 0.01  0.1666666666666667 0.07142857142857142 0.01  0.2222222222222222 0.07142857142857142 0.01  0.2777777777777778 0.07142857142857142 0.01  0.3333333333333333 0.07142857142857142 0.01  0.3888888888888889 0.07142857142857142 0.01  0.4444444444444444 0.07142857142857142 0.01  0.5 0.07142857142857142 0.01  0.5555555555555556 0.07142857142857142 0.01  0.6111111111111112 0.07142857142857142 0.01  0.6666666666666666 0.07142857142857142 0.01  0.7222222222222222 0.07142857142857142 0.01  0.7777777777777778 0.07142857142857142 0.01  0.8333333333333334 0.07142857142857142 0.01  0.8888888888888888 0.07142857142857142 0.01  
[...]
<PointData  Vectors="f_33"> 
<DataArray  type="Float64"  Name="f_33"  NumberOfComponents="3" format="ascii">0.0000000000000000e+00 0.0000000000000000e+00 0.0000000000000000e+00  1.7391276972665854e-03 1.1268840124128406e-04 2.4906213970050913e-03  3.2457661726744201e-03 -6.1160932786324476e-05 9.5435785223542176e-03  4.6203341969105654e-03 -3.4183259429721000e-04 2.0837383191590623e-02  5.8647269456715521e-03 -6.9998894160971318e-04 3.5967399512968158e-02  6.9809464308115436e-03 -1.1206923766437747e-03 5.4550379535208783e-02  7.9707091995987224e-03 -1.5941926012035458e-03 7.6211286561359323e-02  8.8365755598170913e-03 -2.1125803056081444e-03 1.0058275580911022e-01  9.5821248373153343e-03 -2.6687515082817010e-03 1.2730689110819246e-01  1.0212014107613248e-02 -3.2560832306915205e-03 1.5603788950272865e-01  1.0732041337594488e-02 -3.8683596484636218e-03 1.8644510692031213e-01  1.1149210144129935e-02 -4.4997902828259745e-03 2.1821642195512569e-01  1.1471787726843617e-02 -5.1450636871391972e-03 2.5106182109407565e-01  1.1709352767050025e-02 -5.7994157611271652e-03 2.8471715398969361e-01  1.1872832829610696e-02 -6.4587050045960661e-03 3.1894801907875908e-01  1.1974532651422532e-02 -7.1194925372165697e-03 3.5355374669685963e-01  1.2028162907785462e-02 -7.7791265289093867e-03 3.8837145395289241e-01  1.2048900169365622e-02 -8.4358237291535416e-03 4.2328019168453757e-01  1.2053342761559428e-02 -9.0888215910963060e-03 4.5820562438645196e-01  0.0000000000000000e+00 0.0000000000000000e+00 0.0000000000000000e+00  1.6577377330440138e-03 2.6579374123755455e-05 2.5637945013474543e-03  3.1975662262741580e-03 -1.3749441481759837e-04 9.5952575098439546e-03  4.6000858334237678e-03 -4.1090847386172886e-04 2.0837488773681658e-02  5.8705613099002182e-03 -7.6203793566231924e-04 3.5910570538153760e-02  7.0108630031884642e-03 -1.1758328032605292e-03 5.4438062580155697e-02  8.0227140945428859e-03 -1.6425630985376523e-03 7.6047204736632387e-02  8.9086816709996568e-03 -2.1543703307418441e-03 1.0037144494291539e-01  9.6723440578979237e-03 -2.7042079905712133e-03 1.2705317915606015e-01  1.0318357707857953e-02 -3.2855143449353236e-03 1.5574668626406102e-01  1.0852527490040061e-02 -3.8921384707465505e-03 1.8612130345345471e-01  1.1281875523289436e-02 -4.5183580910107754e-03 2.1786482854471639e-01  1.1614701569218736e-02 -5.1589326898573810e-03 2.5068711761057000e-01  1.1860632680004295e-02 -5.8091711796989538e-03 2.8432384298615937e-01  1.2030661962908301e-02 -6.4650064157028495e-03 3.1854037794074075e-01  1.2137177291838275e-02 -7.1230742974807016e-03 3.5313577659012996e-01  1.2193986095451706e-02 -7.7807969962242988e-03 3.8794682109960649e-01  1.2216379444201435e-02 -8.4364555329716241e-03 4.2285214144738509e-01  1.2221390041244267e-02 -9.0891448958593159e-03 4.5777677854634113e-01  0.0000000000000000e+00 0.0000000000000000e+00 0.0000000000000000e+00  1.6497160556491490e-03 -3.9144480445316076e-05 2.5924577757494602e-03  3.2023853542046264e-03 -2.1198745057622047e-04 9.5959910214095286e-03  4.6252851126016882e-03 -4.8289150669953617e-04 2.0788630688651381e-02  5.9162083613899666e-03 -8.2833552019831794e-04 3.5809003027351717e-02  7.0756328233167378e-03 -1.2354210367637611e-03 5.4285692280332934e-02  8.1049333970422896e-03 -1.6951963213516887e-03 7.5847801375635807e-02  9.0065858963630490e-03 -2.2001046064692681e-03 1.0012945961805421e-01  9.7841573851193981e-03 -2.7432443078695091e-03 1.2677328669664095e-01  1.0442327020530315e-02 -3.3181480737819011e-03 1.5543359120988776e-01  1.0986944119821178e-02 -3.9187439389291590e-03 1.8577964294711599e-01  1.1425093451857922e-02 -4.5393850430951316e-03 2.1749911005421682e-01  1.1765154868325111e-02 -5.1749066145975377e-03 2.5030166808156384e-01  1.2016853182981220e-02 -5.8206946009508207e-03 2.8392276072258588e-01  1.2191297416496698e-02 -6.4727599042490652e-03 3.1812748401004232e-01  1.2301009292092872e-02 -7.1278162859524990e-03 3.5271456425179520e-01  1.2359943608503048e-02 -7.7833621036200304e-03 3.8752040100407598e-01  1.2383540826941857e-02 -8.4377528372639073e-03 4.2242317370901500e-01  1.2389018049104934e-02 -9.0900578937831902e-03 4.5734732978603165e-01  0.0000000000000000e+00 0.0000000000000000e+00 0.0000000000000000e+00  1.6538858785713653e-03 -9.5734262176821067e-05 2.5839775428915333e-03  3.2193877969818180e-03 -2.8379712837810770e-04 9.5441525102684128e-03  4.6617856687054988e-03 -5.5594259809916180e-04 2.0686759562341873e-02  5.9722125615812218e-03 -8.9699646683924288e-04 3.5657816097086716e-02  7.1496994399080716e-03 -1.2977018251799258e-03 5.4088400221574150e-02  8.1953536541492008e-03 -1.7504780540252346e-03 7.5608548818123206e-02  9.1116040781521711e-03 -2.2483050138949160e-03 9.9852728220295311e-02  9.9020283502779770e-03 -2.7845157055011111e-03 1.2646363150201925e-01  1.0571342719133760e-02 -3.3527719063218952e-03 1.5509551125928236e-01  1.1125453149996960e-02 -3.9470950179144090e-03 1.8541750559471401e-01  1.1571518820989455e-02 -4.5619204569483348e-03 2.1711709501475765e-01  1.1918011534651248e-02 -5.1921632955508187e-03 2.4990371769328731e-01  1.2174765957076656e-02 -5.8332896531454390e-03 2.8351253134676202e-01  1.2353019370630349e-02 -6.4813912970936374e-03 3.1770829682998641e-01  1.2465440372135109e-02 -7.1332624053312256e-03 3.5228935502973874e-01  1.2526145809981137e-02 -7.7864796224197293e-03 3.8709166839435249e-01  1.2550734285984648e-02 -8.4394787048787320e-03 4.2199291988255999e-01  1.2556580176136003e-02 -9.0914149734175609e-03 4.5691692999676359e-01  0.0000000000000000e+00 0.0000000000000000e+00 0.0000000000000000e+00  1.6551172520301509e-03 -1.5079053946273285e-04 2.5413187776596575e-03  3.2373590608022647e-03 -3.5506952626701755e-04 9.4422592010179208e-03  4.7008180300879355e-03 -6.2990680982920463e-04 2.0532133162238241e-02  6.0311884235136068e-03 -9.6726050976951117e-04 3.5456414377989791e-02  7.2267324295497513e-03 -1.3617748669467362e-03 5.3845294640497962e-02  8.2885708541319304e-03 -1.8075152654036231e-03 7.5328493479627945e-02  9.2191889165364506e-03 -2.2981324004314064e-03 9.9540330591759901e-02  1.0022212402124801e-02 -2.8272514662879200e-03 1.2612336323776194e-01  1.0702409596517113e-02 -3.3886873298806536e-03 1.5473167855568451e-01  1.1265749933824031e-02 -3.9765650552383239e-03 1.8503420901728618e-01  1.1719470835584727e-02 -4.5854073182541935e-03 2.1671818535423676e-01  1.2072138851750147e-02 -5.2102120250998776e-03 2.4949274941216512e-01  1.2333701003743879e-02 -5.8465277706506299e-03 2.8309271423941962e-01  1.2515525364222456e-02 -6.4905293652046470e-03 3.1728244639816860e-01  1.2630430637939831e-02 -7.1390937506607913e-03 3.5185984233974660e-01  1.2692702284573707e-02 -7.7898780827237229e-03 3.8666037058839331e-01  1.2718107783005139e-02 -8.4414033047962248e-03 4.2156116612807315e-01  1.2724203958473615e-02 -9.0929976669879408e-03 4.5648540684472400e-01  0.0000000000000000e+00 0.0000000000000000e+00 0.0000000000000000e+00  1.6478412021765239e-03 -2.1076125512684471e-04 2.4629436968695169e-03  3.2508708124359162e-03 -4.2928314364891544e-04 9.2900110663595402e-03  4.7376309855940149e-03 -7.0604968141369049e-04 2.0324596381782446e-02  6.0889034405539038e-03 -1.0394373178431230e-03 3.5204473898643798e-02  7.3029840723524853e-03 -1.4275986935906018e-03 5.3555953874313666e-02  8.3813129124328829e-03 -1.8661392160348219e-03 7.5007193842601794e-02  9.3265302019498522e-03 -2.3493714944731372e-03 9.9191845429380240e-02  1.0142342791606097e-02 -2.8712192469667946e-03 1.2575209813655980e-01  1.0833581766816805e-02 -3.4256557814596579e-03 1.5434175351423685e-01  1.1406282425926523e-02 -4.0069132936221309e-03 1.8462945981153489e-01  1.1867759524338939e-02 -4.6096041984274453e-03 2.1630213376354837e-01  1.2226672165849405e-02 -5.2288113348027505e-03 2.4906856085726461e-01  1.2493077071043527e-02 -5.8601677946133164e-03 2.8266315005587628e-01  1.2678470329688749e-02 -6.4999336036092497e-03 3.1684981380053057e-01  1.2795818322656005e-02 -7.1450712253878224e-03 3.5142594391010196e-01  1.2859576914918585e-02 -7.7933216094602693e-03 3.8622645557436819e-01  1.2885695551290172e-02 -8.4432958727257822e-03 4.2112788138860024e-01  1.2891944424754172e-02 -9.0945596372929843e-03 4.5605275128775064e-01  0.0000000000000000e+00 0.0000000000000000e+00 0.0000000000000000e+00  1.6242161012343908e-03 -2.8121917773606575e-04 2.3414736710767018e-03  3.2508710155860986e-03 -5.0973104541193759e-04 9.0833729429862717e-03  4.7631001650777086e-03 -7.8595632203344210e-04 2.0062136934227402e-02  6.1366673283266776e-03 -1.1142191209862740e-03 3.4900680880655642e-02  7.3704888540223916e-03 -1.4954695998414288e-03 5.3219368893697515e-02  8.4664465891911081e-03 -1.9264709858194627e-03 7.4643829156400027e-02  9.4273543156573342e-03 -2.4020573861434653e-03 9.8806601773805069e-02  1.0256998473733561e-02 -2.9164032612624602e-03 1.2534929892111543e-01  1.0960266022250835e-02 -3.4636246612724502e-03 1.5392532276457996e-01  1.1543248672499638e-02 -4.0380564613940514e-03 1.8420295997965452e-01  1.2013327658381912e-02 -4.6344004876085407e-03 2.1586874858046803e-01  1.2379242980792791e-02 -5.2478257731953335e-03 2.4863105651784176e-01  1.2651148928830147e-02 -5.8740518440520695e-03 2.8222382782854533e-01  1.2840657187707903e-02 -6.5094263087194706e-03 3.1641045938125850e-01  1.2960869036976139e-02 -7.1510003416963347e-03 3.5098777598156111e-01  1.3026400665823799e-02 -7.7966032892677643e-03 3.8579007598092269e-01  1.3053392556379094e-02 -8.4449369915741423e-03 4.2069323045811274e-01  1.3059813745382457e-02 -9.0958547046653924e-03 4.5561911947426292e-01  0.0000000000000000e+00 0.0000000000000000e+00 0.0000000000000000e+00  1.5507248322604880e-03 -3.5771904502936099e-04 2.1734005844186305e-03  3.1998472620323190e-03 -5.9212721849563393e-04 8.8227165430046928e-03  4.7404006186991697e-03 -8.6543518158686166e-04 1.9747286309254163e-02  6.1399216787111702e-03 -1.1875846311170282e-03 3.4548206422153442e-02  7.3977327910236569e-03 -1.5616629453444673e-03 5.2838800193737677e-02  8.5157818606668399e-03 -1.9851590976766422e-03 7.4241532624910664e-02  9.4968550675205866e-03 -2.4532417427587921e-03 9.8387522073956277e-02  1.0344715415046588e-02 -2.9602610415625334e-03 1.2491764503680050e-01  1.1064241266093443e-02 -3.5004456792219929e-03 1.5348481066327807e-01  1.1661529303789529e-02 -4.0682203215395727e-03 1.8375687523715001e-01  1.2143979285961141e-02 -4.6583698370342933e-03 2.1541993761057143e-01  1.2520364301222903e-02 -5.2661455275522786e-03 2.4818188983443906e-01  1.2800887520384965e-02 -5.8873503370091658e-03 2.8177615254296839e-01  1.2997226475023852e-02 -6.5184168559223382e-03 3.1596554783045738e-01  1.3122566600657640e-02 -7.1564829741742539e-03 3.5054627326886778e-01  1.3191628905370031e-02 -7.7994686206254637e-03 3.8535194759439567e-01  1.3220722187637975e-02 -8.4461517777560217e-03 4.2025768933565832e-01  1.3227840313963134e-02 -9.0967250145210250e-03 4.5518472802723142e-01  0.0000000000000000e+00 0.0000000000000000e+00 0.0000000000000000e+00  8.0648345980950306e-04 4.7341471110330474e-05 2.4169855956387015e-03  1.5303480223932545e-03 -1.1025702721096105e-04 9.4755129841735796e-03  2.1875030275415753e-03 -3.5258887475185307e-04 2.0774877080203782e-02  2.7829365879528910e-03 -6.6936815979300114e-04 3.5910678308901142e-02  3.3176890379718257e-03 -1.0500205648761574e-03 5.4499489173505722e-02  3.7924073195976984e-03 -1.4862054383848885e-03 7.6166186813437300e-02  4.2082016674299403e-03 -1.9705237382591193e-03 1.0054333975813252e-01  4.5667100167099909e-03 -2.4960604555425915e-03 1.2727299603459397e-01  4.8700992343629372e-03 -3.0562504220180632e-03 1.5600929980162684e-01  5.1210829126129148e-03 -3.6448714338316712e-03 1.8642155310547448e-01  5.3229477841587308e-03 -4.2560857887792075e-03 2.1819757841252110e-01  5.4795799578451990e-03 -4.8845012322711618e-03 2.5104730371831468e-01  5.5954874488641382e-03 -5.5252405883104497e-03 2.8470651809925163e-01  5.6758180574109163e-03 -6.1740160321915429e-03 3.1894075769565555e-01  5.7263732010855309e-03 -6.8272066057398989e-03 3.5354928910405470e-01  5.7536221708684894e-03 -7.4819367110808442e-03 3.8836916359194551e-01  5.7647283021603248e-03 -8.1361379729303473e-03 4.2327935923012033e-01  5.7674362124119317e-03 -8.7886514127681892e-03 4.5820525768560272e-01  0.0000000000000000e+00 0.0000000000000000e+00 0.0000000000000000e+00  7.8830408014678752e-04 -6.7666854482249318e-06 2.4828788830842789e-03  1.5463309077994279e-03 -1.5416967934499476e-04 9.5266941645566674e-03  2.2258675591190023e-03 -3.9248221461705794e-04 2.0775112992594224e-02  2.8417101529801792e-03 -7.0532307808173465e-04 3.5854144918683911e-02  3.3948302989311716e-03 -1.0820657591126303e-03 5.4387478704691593e-02  3.8859853524325920e-03 -1.5143951141485708e-03 7.6002374261895628e-02  4.3163585209196513e-03 -1.9949515592611756e-03 1.0033224619408666e-01  4.6876410715069742e-03 -2.5168571721658371e-03 1.2701944698121770e-01  5.0020519712310058e-03 -3.0735831236625736e-03 1.5571820771078795e-01  5.2623659632661298e-03 -3.6589444837382373e-03 1.8609781410932075e-01  5.4719447737030429e-03 -4.2671423054728959e-03 2.1784600929718034e-01  5.6347657227320738e-03 -4.8928245386260253e-03 2.5067259191252039e-01  5.7554456596951246e-03 -5.5311554135974743e-03 2.8431317463508787e-01  5.8392598045840455e-03 -6.1778893871035140e-03 3.1853306932749464e-01  5.8921557603020718e-03 -6.8294483903433914e-03 3.5313126737901723e-01  5.9207652691419714e-03 -7.4830005266324660e-03 3.8794448679006110e-01  5.9324357309440039e-03 -8.1365209243166453e-03 4.2285128516537385e-01  5.9353369628493153e-03 -8.7887894291176528e-03 4.5777649311742363e-01  0.0000000000000000e+00 0.0000000000000000e+00 0.0000000000000000e+00  7.9270779670708694e-04 -4.2973344877528618e-05 2.5091818109849759e-03  1.5685149042647113e-03 -1.9330432002270440e-04 9.5245106653120137e-03  2.2688355105055270e-03 -4.2997292863342903e-04 2.0724884062433495e-02  2.9039989531919747e-03 -7.3971768768086124e-04 3.5751775654586121e-02  3.4747326890955154e-03 -1.1129390469338122e-03 5.4234549772867256e-02  3.9817130423727377e-03 -1.5416515899712908e-03 7.5802538915992687e-02  4.4261286028949290e-03 -2.0186301354013511e-03 1.0008991360929564e-01  4.8097033440632972e-03 -2.5370643569218427e-03 1.2673927557046355e-01  5.1347047277813286e-03 -3.0904716381893117e-03 1.5540489430753873e-01  5.4039715091100792e-03 -3.6727069298427349e-03 1.8575599093074679e-01  5.6209457917183051e-03 -4.2780099248826680e-03 2.1748017949967746e-01  5.7897024660681050e-03 -4.9010676055303683e-03 2.5028707792731547e-01  5.9149739025329325e-03 -5.5370840009528527e-03 2.8391206972597155e-01  6.0021694169225676e-03 -6.1818539610314395e-03 3.1812018884728516e-01  6.0573891803452134e-03 -6.8318399006384745e-03 3.5271009813760601e-01  6.0874326987527113e-03 -7.4842507374338453e-03 3.8751813252624639e-01  6.0998257384281178e-03 -8.1371071902825130e-03 4.2242239938804477e-01  6.1030034281696005e-03 -8.7891852399319716e-03 4.5734715725508784e-01  0.0000000000000000e+00 0.0000000000000000e+00 0.0000000000000000e+00  8.0383401995121398e-04 -7.3142647871015596e-05 2.4989837270033002e-03  1.5962648310204799e-03 -2.2974029371033422e-04 9.4705381234104612e-03  2.3165023847980760e-03 -4.6670294916691032e-04 2.0621543699996900e-02  2.9704850832601550e-03 -7.7418864982765423e-04 3.5599571626019441e-02  3.5583462543968248e-03 -1.1441740925757823e-03 5.4036482038826279e-02  4.0806681024787008e-03 -1.5693556502014458e-03 7.5562655468553425e-02  4.5386547528502930e-03 -2.0427702090396664e-03 9.9812656040496620e-02  4.9340693296178713e-03 -2.5577206652977504e-03 1.2642918192240316e-01  5.2692331394450041e-03 -3.1077870479813336e-03 1.5506645502747873e-01  5.5470540945351627e-03 -3.6868703195622309e-03 1.8539356744177657e-01  5.7710598869520728e-03 -4.2892511868654858e-03 2.1709794605776669e-01  5.9454283034520144e-03 -4.9096566460839087e-03 2.4988897104092803e-01  6.0750126541592184e-03 -5.5433309877766122e-03 2.8350173922140398e-01  6.1653618400700286e-03 -6.1861096783604377e-03 3.1770094852406749e-01  6.2227344701590295e-03 -6.8344954600354241e-03 3.5228487547241988e-01  6.2541047390355341e-03 -7.4857371320812532e-03 3.8708941741166897e-01  6.2671774557956986e-03 -8.1379032227300238e-03 4.2199218699614427e-01  6.2705987344895261e-03 -8.7898321417718035e-03 4.5691682917832704e-01  0.0000000000000000e+00 0.0000000000000000e+00 0.0000000000000000e+00  8.1410523628256358e-04 -1.0266868014721736e-04 2.4558309309788764e-03  1.6250193293251411e-03 -2.6591061357991345e-04 9.3673736769952602e-03  2.3655844456687510e-03 -5.0396908219971876e-04 2.0465681414299219e-02  3.0385048320975159e-03 -8.0955825456443056e-04 3.5397176214139119e-02  3.6434353864339278e-03 -1.1764047128878545e-03 5.3792564934200128e-02  4.1809838980186430e-03 -1.5980283774674278e-03 7.5281916393056841e-02  4.6524079035704926e-03 -2.0678033748340579e-03 9.9499675501953447e-02  5.0595227883679433e-03 -2.5791771986532139e-03 1.2608841872739363e-01  5.4047091925819848e-03 -3.1258053267234774e-03 1.5470220807661600e-01  5.6909470702484737e-03 -3.7016402170979455e-03 1.8500993171250985e-01  5.9218516078004321e-03 -4.3010062884157032e-03 2.1669876688557646e-01  6.1017050495603929e-03 -4.9186722146964462e-03 2.4947779693288594e-01  6.2354831078837774e-03 -5.5499238503173851e-03 2.8308177326153877e-01  6.3288757519921980e-03 -6.1906384839290089e-03 3.1727499864797032e-01  6.3883020559714499e-03 -6.8373603095644355e-03 3.5185530426336481e-01  6.4209156143789593e-03 -7.4873784025238348e-03 3.8665809293349512e-01  6.4346059103756138e-03 -8.1388110535245018e-03 4.2156043173435143e-01  6.4382142298281307e-03 -8.7906152525773860e-03 4.5648532965087074e-01  0.0000000000000000e+00 0.0000000000000000e+00 0.0000000000000000e+00  8.2039634183700243e-04 -1.3562545997728164e-04 2.3787767692169982e-03  1.6516307671666397e-03 -3.0419916775548860e-04 9.2150194454679157e-03  2.4134586098033639e-03 -5.4298097472562246e-04 2.0257592850762077e-02  3.1057143203899124e-03 -8.4650643002081021e-04 3.5144662157884414e-02  3.7279239261390614e-03 -1.2100854402457848e-03 5.3502702362033777e-02  4.2808524526839892e-03 -1.6280135092578856e-03 7.4960151691446472e-02  4.7658434573351997e-03 -2.0940024927267988e-03 9.9150778346462173e-02  5.1847726643012978e-03 -2.6016507600574090e-03 1.2571679148186568e-01  5.5400820447821320e-03 -3.1446935317893986e-03 1.5431196824546475e-01  5.8348234553511269e-03 -3.7171374757294312e-03 1.8460491275551677e-01  6.0726985261557783e-03 -4.3133527097099587e-03 2.1628248808594419e-01  6.2580925236589858e-03 -4.9281513101831296e-03 2.4905342085691082e-01  6.3961019796601902e-03 -5.5568623664739355e-03 2.8265205795278520e-01  6.4925563165690462e-03 -6.1954067437850107e-03 3.1684224757083346e-01  6.5540337899930405e-03 -6.8403721075227502e-03 3.5142131573148028e-01  6.5878695770071240e-03 -7.4890893912069332e-03 3.8622411125614492e-01  6.6021476710266631e-03 -8.1397272930328508e-03 4.2112710126865488e-01  6.6058955975075518e-03 -8.7914034080057192e-03 4.5605264575676835e-01  0.0000000000000000e+00 0.0000000000000000e+00 0.0000000000000000e+00  8.2031115995905685e-04 -1.7691847813601388e-04 2.2612341220424183e-03  1.6726922460668097e-03 -3.4783077355476124e-04 9.0099641578988577e-03  2.4565257647351161e-03 -5.8586858677641567e-04 1.9995828830797112e-02  3.1685937228420830e-03 -8.8655430715607522e-04 3.4841237506511927e-02  3.8085445914799116e-03 -1.2464003471223616e-03 5.3166332904864763e-02  4.3773282085741751e-03 -1.6602816942954712e-03 7.4596914868179320e-02  4.8763591296715220e-03 -2.1221759060479056e-03 9.8765600718576083e-02  5.3075616173125506e-03 -2.6258098210749214e-03 1.2531400855592301e-01  5.6734315173116948e-03 -3.1649925078947945e-03 1.5389551165533821e-01  5.9770867870811125e-03 -3.7337845062695224e-03 1.8417835139817287e-01  6.2223101082088013e-03 -4.3266033272104315e-03 2.1584901217011118e-01  6.4135844020645543e-03 -4.9383069644319422e-03 2.4861580352078302e-01  6.5561215841861021e-03 -5.5642706413163191e-03 2.8221260803521425e-01  6.6558850219872482e-03 -6.2004