<?xml version="1.0"?>
<VTKFile type="UnstructuredGrid"  version="0.1"  >
<UnstructuredGrid>
<Piece  NumberOfPoints="760" NumberOfCells="3024">
<Points>
<DataArray  type="Float64"  NumberOfComponents="3"  format="ascii">0 0 0  0.05555555555555555 0 0  0.1111111111111111 0 0  0.1666666666666667 0 0  0.2222222222222222 0 0  0.2777777777777778 0 0  0.3333333333333333 0 0  0.3888888888888889 0 0  0.4444444444444444 0 0  0.5 0 0  0.5555555555555556 0 0  0.6111111111111112 0 0  0.6666666666666666 0 0  0.7222222222222222 0 0  0.7777777777777778 0 0  0.8333333333333334 0 0  0.8888888888888888 0 0  0.9444444444444444 0 0  1 0 0  0 0.01428571428571429 0  0.05555555555555555 0.01428571428571429 0  0.1111111111111111 0.01428571428571429 0  0.1666666666666667 0.01428571428571429 0  0.2222222222222222 0.01428571428571429 0  0.2777777777777778 0.01428571428571429 0  0.3333333333333333 0.01428571428571429 0  0.3888888888888889 0.01428571428571429 0  0.4444444444444444 0.01428571428571429 0  0.5 0.01428571428571429 0  0.5555555555555556 0.01428571428571429 0  0.6111111111111112 0.01428571428571429 0  0.6666666666666666 0.01428571428571429 0  0.7222222222222222 0.01428571428571429 0  0.7777777777777778 0.01428571428571429 0  0.8333333333333334 0.01428571428571429 0  0.8888888888888888 0.01428571428571429 0  0.9444444444444444 0.01428571428571429 0  1 0.01428571428571429 0  0 0.02857142857142857 0  0.05555555555555555 0.02857142857142857 0  0.1111111111111111 0.02857142857142857 0  0.1666666666666667 0.02857142857142857 0  0.2222222222222222 0.02857142857142857 0  0.2777777777777778 0.02857142857142857 0  0.3333333333333333 0.02857142857142857 0  0.3888888888888889 0.02857142857142857 0  0.4444444444444444 0.02857142857142857 0  0.5 0.02857142857142857 0  0.5555555555555556 0.02857142857142857 0  0.6111111111111112 0.02857142857142857 0  0.6666666666666666 0.02857142857142857 0  0.7222222222222222 0.02857142857142857 0  0.7777777777777778 0.02857142857142857 0  0.8333333333333334 0.02857142857142857 0  0.8888888888888888 0.02857142857142857 0  0.9444444444444444 0.02857142857142857 0  1 0.02857142857142857 0  0 0.04285714285714286 0  0.05555555555555555 0.04285714285714286 0  0.1111111111111111 0.04285714285714286 0  0.1666666666666667 0.04285714285714286 0  0.2222222222222222 0.04285714285714286 0  0.2777777777777778 0.04285714285714286 0  0.3333333333333333 0.04285714285714286 0  0.3888888888888889 0.04285714285714286 0  0.4444444444444444 0.04285714285714286 0  0.5 0.04285714285714286 0  0.5555555555555556 0.04285714285714286 0  0.6111111111111112 0.04285714285714286 0  0.6666666666666666 0.04285714285714286 0  0.7222222222222222 0.04285714285714286 0  0.7777777777777778 0.04285714285714286 0  0.8333333333333334 0.04285714285714286 0  0.8888888888888888 0.04285714285714286 0  0.9444444444444444 0.04285714285714286 0  1 0.04285714285714286 0  0 0.05714285714285715 0  0.05555555555555555 0.05714285714285715 0  0.1111111111111111 0.05714285714285715 0  0.1666666666666667 0.05714285714285715 0  0.2222222222222222 0.05714285714285715 0  0.2777777777777778 0.05714285714285715 0  0.3333333333333333 0.05714285714285715 0  0.3888888888888889 0.05714285714285715 0  0.4444444444444444 0.05714285714285715 0  0.5 0.05714285714285715 0  0.5555555555555556 0.05714285714285715 0  0.6111111111111112 0.05714285714285715 0  0.6666666666666666 0.05714285714285715 0  0.7222222222222222 0.05714285714285715 0  0.7777777777777778 0.05714285714285715 0  0.8333333333333334 0.05714285714285715 0  0.8888888888888888 0.05714285714285715 0  0.9444444444444444 0.05714285714285715 0  1 0.05714285714285715 0  0 0.07142857142857142 0  0.05555555555555555 0.07142857142857142 0  0.1111111111111111 0.07142857142857142 0  0.1666666666666667 0.07142857142857142 0  0.2222222222222222 0.07142857142857142 0  0.2777777777777778 0.07142857142857142 0  0.3333333333333333 0.07142857142857142 0  0.3888888888888889 0.07142857142857142 0  0.4444444444444444 0.07142857142857142 0  0.5 0.07142857142857142 0  0.5555555555555556 0.07142857142857142 0  0.6111111111111112 0.07142857142857142 0  0.6666666666666666 0.07142857142857142 0  0.7222222222222222 0.07142857142857142 0  0.7777777777777778 0.07142857142857142 0  0.8333333333333334 0.07142857142857142 0  0.8888888888888888 0.07142857142857142 0  0.9444444444444444 0.07142857142857142 0  1 0.07142857142857142 0  0 0.08571428571428573 0  0.05555555555555555 0.08571428571428573 0  0.1111111111111111 0.08571428571428573 0  0.1666666666666667 0.08571428571428573 0  0.2222222222222222 0.08571428571428573 0  0.2777777777777778 0.08571428571428573 0  0.3333333333333333 0.08571428571428573 0  0.3888888888888889 0.08571428571428573 0  0.4444444444444444 0.08571428571428573 0  0.5 0.08571428571428573 0  0.5555555555555556 0.08571428571428573 0  0.6111111111111112 0.08571428571428573 0  0.6666666666666666 0.08571428571428573 0  0.7222222222222222 0.08571428571428573 0  0.7777777777777778 0.08571428571428573 0  0.8333333333333334 0.08571428571428573 0  0.8888888888888888 0.08571428571428573 0  0.9444444444444444 0.08571428571428573 0  1 0.08571428571428573 0  0 0.1 0  0.05555555555555555 0.1 0  0.1111111111111111 0.1 0  0.1666666666666667 0.1 0  0.2222222222222222 0.1 0  0.2777777777777778 0.1 0  0.3333333333333333 0.1 0  0.3888888888888889 0.1 0  0.4444444444444444 0.1 0  0.5 0.1 0  0.5555555555555556 0.1 0  0.6111111111111112 0.1 0  0.6666666666666666 0.1 0  0.7222222222222222 0.1 0  0.7777777777777778 0.1 0  0.8333333333333334 0.1 0  0.8888888888888888 0.1 0  0.9444444444444444 0.1 0  1 0.1 0  0 0 0.01  0.05555555555555555 0 0.01  0.1111111111111111 0 0.01  0.1666666666666667 0 0.01  0.2222222222222222 0 0.01  0.2777777777777778 0 0.01  0.3333333333333333 0 0.01  0.3888888888888889 0 0.01  0.4444444444444444 0 0.01  0.5 0 0.01  0.5555555555555556 0 0.01  0.6111111111111112 0 0.01  0.6666666666666666 0 0.01  0.7222222222222222 0 0.01  0.7777777777777778 0 0.01  0.8333333333333334 0 0.01  0.8888888888888888 0 0.01  0.9444444444444444 0 0.01  1 0 0.01  0 0.01428571428571429 0.01  0.05555555555555555 0.01428571428571429 0.01  0.1111111111111111 0.01428571428571429 0.01  0.1666666666666667 0.01428571428571429 0.01  0.2222222222222222 0.01428571428571429 0.01  0.2777777777777778 0.01428571428571429 0.01  0.3333333333333333 0.01428571428571429 0.01  0.3888888888888889 0.01428571428571429 0.01  0.4444444444444444 0.01428571428571429 0.01  0.5 0.01428571428571429 0.01  0.5555555555555556 0.01428571428571429 0.01  0.6111111111111112 0.01428571428571429 0.01  0.6666666666666666 0.01428571428571429 0.01  0.7222222222222222 0.01428571428571429 0.01  0.7777777777777778 0.01428571428571429 0.01  0.8333333333333334 0.01428571428571429 0.01  0.8888888888888888 0.01428571428571429 0.01  0.9444444444444444 0.01428571428571429 0.01  1 0.01428571428571429 0.01  0 0.02857142857142857 0.01  0.05555555555555555 0.02857142857142857 0.01  0.1111111111111111 0.02857142857142857 0.01  0.1666666666666667 0.02857142857142857 0.01  0.2222222222222222 0.02857142857142857 0.01  0.2777777777777778 0.02857142857142857 0.01  0.3333333333333333 0.02857142857142857 0.01  0.3888888888888889 0.02857142857142857 0.01  0.4444444444444444 0.02857142857142857 0.01  0.5 0.02857142857142857 0.01  0.5555555555555556 0.02857142857142857 0.01  0.6111111111111112 0.02857142857142857 0.01  0.6666666666666666 0.02857142857142857 0.01  0.7222222222222222 0.02857142857142857 0.01  0.7777777777777778 0.02857142857142857 0.01  0.8333333333333334 0.02857142857142857 0.01  0.8888888888888888 0.02857142857142857 0.01  0.9444444444444444 0.02857142857142857 0.01  1 0.02857142857142857 0.01  0 0.04285714285714286 0.01  0.05555555555555555 0.04285714285714286 0.01  0.1111111111111111 0.04285714285714286 0.01  0.1666666666666667 0.04285714285714286 0.01  0.2222222222222222 0.04285714285714286 0.01  0.2777777777777778 0.04285714285714286 0.01  0.3333333333333333 0.04285714285714286 0.01  0.3888888888888889 0.04285714285714286 0.01  0.4444444444444444 0.04285714285714286 0.01  0.5 0.04285714285714286 0.01  0.5555555555555556 0.04285714285714286 0.01  0.6111111111111112 0.04285714285714286 0.01  0.6666666666666666 0.04285714285714286 0.01  0.7222222222222222 0.04285714285714286 0.01  0.7777777777777778 0.04285714285714286 0.01  0.8333333333333334 0.04285714285714286 0.01  0.8888888888888888 0.04285714285714286 0.01  0.9444444444444444 0.04285714285714286 0.01  1 0.04285714285714286 0.01  0 0.05714285714285715 0.01  0.05555555555555555 0.05714285714285715 0.01  0.1111111111111111 0.05714285714285715 0.01  0.1666666666666667 0.05714285714285715 0.01  0.2222222222222222 0.05714285714285715 0.01  0.2777777777777778 0.05714285714285715 0.01  0.3333333333333333 0.05714285714285715 0.01  0.3888888888888889 0.05714285714285715 0.01  0.4444444444444444 0.05714285714285715 0.01  0.5 0.05714285714285715 0.01  0.5555555555555556 0.05714285714285715 0.01  0.6111111111111112 0.05714285714285715 0.01  0.6666666666666666 0.05714285714285715 0.01  0.7222222222222222 0.05714285714285715 0.01  0.7777777777777778 0.05714285714285715 0.01  0.8333333333333334 0.05714285714285715 0.01  0.8888888888888888 0.05714285714285715 0.01  0.9444444444444444 0.05714285714285715 0.01  1 0.05714285714285715 0.01  0 0.07142857142857142 0.01  0.05555555555555555 0.07142857142857142 0.01  0.1111111111111111 0.07142857142857142 0.01  0.1666666666666667 0.07142857142857142 0.01  0.2222222222222222 0.07142857142857142 0.01  0.2777777777777778 0.07142857142857142 0.01  0.3333333333333333 0.07142857142857142 0.01  0.3888888888888889 0.07142857142857142 0.01  0.4444444444444444 0.07142857142857142 0.01  0.5 0.07142857142857142 0.01  0.5555555555555556 0.07142857142857142 0.01  0.6111111111111112 0.07142857142857142 0.01  0.6666666666666666 0.07142857142857142 0.01  0.7222222222222222 0.07142857142857142 0.01  0.7777777777777778 0.07142857142857142 0.01  0.8333333333333334 0.07142857142857142 0.01  0.8888888888888888 0.07142857142857142 0.01  
[...]
<PointData  Vectors="f_33"> 
<DataArray  type="Float64"  Name="f_33"  NumberOfComponents="3" format="ascii">0.0000000000000000e+00 0.0000000000000000e+00 0.0000000000000000e+00  -1.0058693644197734e-03 -8.8145752380426912e-05 -1.3926651205486257e-03  -1.8796533882657633e-03 -5.1618723298352553e-05 -5.3266677943536499e-03  -2.6771554980515549e-03 7.9884931732248300e-06 -1.1624274531889836e-02  -3.3989100253725823e-03 7.7237433590190518e-05 -2.0059039776082723e-02  -4.0459776568945198e-03 1.5105922941778874e-04 -3.0416360079112716e-02  -4.6193888745990350e-03 2.2726515786475874e-04 -4.2486305293401236e-02  -5.1206917977126886e-03 3.0464112034609569e-04 -5.6063383067754914e-02  -5.5520354691172826e-03 3.8235102304165079e-04 -7.0947580774499752e-02  -5.9161994245592493e-03 4.5973213327555500e-04 -8.6945854764250777e-02  -6.2166260081830049e-03 5.3622640322284509e-04 -1.0387385145026636e-01  -6.4574527502587777e-03 6.1136050978105756e-04 -1.2155777886231285e-01  -6.6435404338370044e-03 6.8474355811159473e-04 -1.3983638489232078e-01  -6.7804954750892562e-03 7.5607116151364543e-04 -1.5856301361687786e-01  -6.8746867197097151e-03 8.2513195009192939e-04 -1.7760771864966440e-01  -6.9332577101210002e-03 8.9181563489180548e-04 -1.9685941718948638e-01  -6.9641397195388394e-03 9.5612287943352807e-04 -2.1622807298097274e-01  -6.9760827718989777e-03 1.0181727647984406e-03 -2.3564692150754887e-01  -6.9786464165414877e-03 1.0782307812036086e-03 -2.5507497868299711e-01  0.0000000000000000e+00 0.0000000000000000e+00 0.0000000000000000e+00  -9.4913696627174269e-04 -3.7716564283159047e-05 -1.4329389882684232e-03  -1.8322080853592341e-03 -6.8049911707886766e-06 -5.3547770681374139e-03  -2.6364102624249954e-03 4.8564286019099570e-05 -1.1623638140874661e-02  -3.3645817457551878e-03 1.1368088219788124e-04 -2.0026692080508762e-02  -4.0177745206209517e-03 1.8343644755810642e-04 -3.0353124848126828e-02  -4.5970201094506927e-03 2.5565944142462774e-04 -4.2394274621327277e-02  -5.1038540999570258e-03 3.2916650575521813e-04 -5.5945101281070587e-02  -5.5404022404551660e-03 4.0315548085256912e-04 -7.0805753056458753e-02  -5.9094146363605571e-03 4.7699953867343521e-04 -8.6783228836768145e-02  -6.2143014205119770e-03 5.5017842362815904e-04 -1.0369316064102302e-01  -6.4591668229657100e-03 6.2225825702491772e-04 -1.2136170690441342e-01  -6.6488381092867452e-03 6.9288890706085938e-04 -1.3962753788636909e-01  -6.7888885022832504e-03 7.6180771410378173e-04 -1.5834389379177591e-01  -6.8856543647643582e-03 8.2884560961244151e-04 -1.7738069788003405e-01  -6.9462473867667280e-03 8.9393467958400125e-04 -1.9662670900838800e-01  -6.9785650641509727e-03 9.5711719483816671e-04 -2.1599170056020228e-01  -6.9913214586764805e-03 1.0185479087508867e-03 -2.3540867052015085e-01  -6.9941875343102868e-03 1.0784209970577548e-03 -2.5483628809076048e-01  0.0000000000000000e+00 0.0000000000000000e+00 0.0000000000000000e+00  -9.3441542358184686e-04 5.3436153417799014e-07 -1.4479405823317796e-03  -1.8150197351303626e-03 3.6327568271236043e-05 -5.3542366339126264e-03  -2.6216486871310815e-03 9.0125759893074512e-05 -1.1595474616764715e-02  -3.3530453723437264e-03 1.5191594583821794e-04 -1.9969208422579439e-02  -4.0095484413573430e-03 2.1777825167006230e-04 -3.0267398780076948e-02  -4.5919937558232815e-03 2.8597632503254446e-04 -4.2282421443866673e-02  -5.1018499015271579e-03 3.5549648712299121e-04 -5.5809615103230077e-02  -5.5412136824838495e-03 4.2561883552394414e-04 -7.0649250354196502e-02  -5.9128188103905292e-03 4.9577046944675423e-04 -8.6608339288476915e-02  -6.2200640555589064e-03 5.6547624588459641e-04 -1.0350247230523064e-01  -6.4670447252006755e-03 6.3434518410583542e-04 -1.2115773107690306e-01  -6.6585806735980947e-03 7.0206998731331090e-04 -1.3941268058289324e-01  -6.8002389342236794e-03 7.6843131680556440e-04 -1.5812042901094356e-01  -6.8983508197420678e-03 8.3330378253332739e-04 -1.7715074086072152e-01  -6.9600236905648111e-03 8.9666286179170853e-04 -1.9639218863284619e-01  -6.9931488125535264e-03 9.5859292252357931e-04 -2.1575432963943167e-01  -7.0064256677734010e-03 1.0192889796734653e-03 -2.3516990921697400e-01  -7.0095166288684282e-03 1.0789387481347336e-03 -2.5459726825059564e-01  0.0000000000000000e+00 0.0000000000000000e+00 0.0000000000000000e+00  -9.2701613267424606e-04 3.2874744904711831e-05 -1.4421664895575841e-03  -1.8049724539818978e-03 7.7219107089197218e-05 -5.3243065417958356e-03  -2.6134694006351728e-03 1.3160344583064965e-04 -1.1537710087343278e-02  -3.3475481286805724e-03 1.9085029392349259e-04 -1.9884032587090747e-02  -4.0067556386773166e-03 2.5306850124956059e-04 -3.0156616894038993e-02  -4.5917746788403857e-03 3.1728184831043957e-04 -4.2148355976493225e-02  -5.1040313571776652e-03 3.8277641623302231e-04 -5.5654774517178832e-02  -5.5456057124277707e-03 4.4896414911865936e-04 -7.0476181169945334e-02  -5.9192230741315077e-03 5.1534497531877371e-04 -8.6419553205251520e-02  -6.2282776117081129e-03 5.8149634123831118e-04 -1.0330040356061153e-01  -6.4768621944006960e-03 6.4707337449823404e-04 -1.2094470506442652e-01  -6.6697957762543846e-03 7.1181324240887698e-04 -1.3919088618056388e-01  -6.8126458123485625e-03 7.7554098537055199e-04 -1.5789189178472524e-01  -6.9117452975974046e-03 8.3817574500726923e-04 -1.7691729616335941e-01  -6.9742043681602908e-03 8.9973709721275625e-04 -1.9615545433042789e-01  -7.0079162779276014e-03 9.6035213056989911e-04 -2.1551567827539078e-01  -7.0215730632353897e-03 1.0202590867235152e-03 -2.3493043674533823e-01  -7.0248228977146283e-03 1.0796973814677035e-03 -2.5435772513160509e-01  0.0000000000000000e+00 0.0000000000000000e+00 0.0000000000000000e+00  -9.1817828336943660e-04 6.3595252920115166e-05 -1.4173168859852679e-03  -1.7956029571395394e-03 1.1706007097865784e-04 -5.2664290232045169e-03  -2.6067918048873328e-03 1.7291326761084965e-04 -1.1450515735779987e-02  -3.3437884393727859e-03 2.3006678237074129e-04 -1.9770858481523327e-02  -4.0056941019048133e-03 2.8881123323356791e-04 -3.0020304658974626e-02  -4.5931884293693333e-03 3.4908330286392646e-04 -4.1991566710301215e-02  -5.1077126276020107e-03 4.1054286740797532e-04 -5.5480084408115471e-02  -5.5513511156564145e-03 4.7276542731418858e-04 -7.0286087198622019e-02  -5.9268292615648425e-03 5.3533661884410592e-04 -8.6216456233797437e-02  -6.2375404778966604e-03 5.9789165757152471e-04 -1.0308658576339291e-01  -6.4875773598957734e-03 6.6013394224286081e-04 -1.2072230537612294e-01  -6.6817595384695673e-03 7.2184611616315066e-04 -1.3896187463240708e-01  -6.8256562957156441e-03 7.8289819578014283e-04 -1.5765804306685882e-01  -6.9256037267187145e-03 8.4325435658357028e-04 -1.7668016267169051e-01  -6.9887165825090348e-03 9.0297887401924741e-04 -1.9591633909422781e-01  -7.0228938266740622e-03 9.6224232343688804e-04 -2.1527560844043339e-01  -7.0368265207999383e-03 1.0213290344581885e-03 -2.3469013542018605e-01  -7.0401661399440204e-03 1.0805729273411205e-03 -2.5411756217610793e-01  0.0000000000000000e+00 0.0000000000000000e+00 0.0000000000000000e+00  -9.0454742670778544e-04 9.6310343272189541e-05 -1.3725413724629384e-03  -1.7836844885085609e-03 1.5778800842651108e-04 -5.1804581573354092e-03  -2.5987972113490814e-03 2.1475779063701071e-04 -1.1333816384883590e-02  -3.3392452973218657e-03 2.6973828201881108e-04 -1.9629515431700807e-02  -4.0041202216212907e-03 3.2498376517478485e-04 -2.9858235775923510e-02  -4.5942640561347625e-03 3.8128690015474799e-04 -4.1811815203899323e-02  -5.1111881652279043e-03 4.3867610192767836e-04 -5.5285316668570623e-02  -5.5570000444007048e-03 4.9689349489164230e-04 -7.0078760386059355e-02  -5.9344312617739432e-03 5.5561289010936721e-04 -8.5998864119872884e-02  -6.2468759086071564e-03 6.1452862871075179e-04 -1.0286085961344539e-01  -6.4984258892653692e-03 6.7339313613423019e-04 -1.2049039766310583e-01  -6.6939003783942396e-03 7.3203503419289181e-04 -1.3872553594703205e-01  -6.8388690934872726e-03 7.9036974121106894e-04 -1.5741879623931845e-01  -6.9396697763305943e-03 8.4840695029343510e-04 -1.7643927577740637e-01  -7.0034205572915764e-03 9.0625643243502250e-04 -1.9567479832523899e-01  -7.0380271007866374e-03 9.6413344878463786e-04 -2.1503409207877347e-01  -7.0521850649217250e-03 1.0223713457664318e-03 -2.3444898812694540e-01  -7.0555647503483167e-03 1.0814291433682472e-03 -2.5387677289644017e-01  0.0000000000000000e+00 0.0000000000000000e+00 0.0000000000000000e+00  -8.8146577071403589e-04 1.3411205423154469e-04 -1.3037416799534201e-03  -1.7639260529606869e-03 2.0123316951257974e-04 -5.0641848375916612e-03  -2.5841897169107146e-03 2.5801109582972116e-04 -1.1186523346778556e-02  -3.3288801686700391e-03 3.1024249598705364e-04 -1.9459300396351794e-02  -3.9974108748011992e-03 3.6174426816065129e-04 -2.9669874270612264e-02  -4.5908540139891979e-03 4.1395419050153524e-04 -4.1608667415820540e-02  -5.1108016849319765e-03 4.6719093748095488e-04 -5.5070117677908481e-02  -5.5593838983506493e-03 5.2133609186168792e-04 -6.9853918565404127e-02  -5.9393346712432694e-03 5.7614230953429888e-04 -8.5766560755306295e-02  -6.2540435899840121e-03 6.3135996295612864e-04 -1.0262307040225975e-01  -6.5075959230237197e-03 6.8678966678611074e-04 -1.2024888372995773e-01  -6.7048040248678629e-03 7.4230602848913236e-04 -1.3848182297774111e-01  -6.8512314460273810e-03 7.9787021551939552e-04 -1.5717414901615215e-01  -6.9532108322939348e-03 8.5353799562119391e-04 -1.7619467104073933e-01  -7.0178567612522013e-03 9.0946561560915115e-04 -1.9543089727973020e-01  -7.0530760855820485e-03 9.6591462329952355e-04 -2.1479121382294378e-01  -7.0675711049465982e-03 1.0232672009168426e-03 -2.3420708559893375e-01  -7.0710140503036844e-03 1.0821331405465348e-03 -2.5363544213811989e-01  0.0000000000000000e+00 0.0000000000000000e+00 0.0000000000000000e+00  -8.2967784359005677e-04 1.7449187538849206e-04 -1.2090200388008186e-03  -1.7149526032649372e-03 2.4498084207838131e-04 -4.9179817841324483e-03  -2.5420270082332050e-03 3.0030671919061431e-04 -1.1010202246578843e-02  -3.2930545002515326e-03 3.4931147471368372e-04 -1.9262118904963814e-02  -3.9676614487938579e-03 3.9699589046313864e-04 -2.9457158224459198e-02  -4.5669429070286649e-03 4.4520204406476064e-04 -4.1383972977159282e-02  -5.0924595370283451e-03 4.9443434669171383e-04 -5.4836202442390673e-02  -5.5463060245894381e-03 5.4467134160174574e-04 -6.9613124862857728e-02  -5.9311825582751112e-03 5.9572706616210010e-04 -8.5520951633568792e-02  -6.2504453633573809e-03 6.4740005999265138e-04 -1.0237446523560706e-01  -6.5081463299472529e-03 6.9953487953409055e-04 -1.1999885416468642e-01  -6.7090645008794914e-03 7.5204921007488085e-04 -1.3823167346610168e-01  -6.8587304415563552e-03 8.0494754858754830e-04 -1.5692489150735273e-01  -6.9634444324107626e-03 8.5832953361700780e-04 -1.7594699762243540e-01  -7.0302897496881149e-03 9.1239598535102883e-04 -1.9518515225214281e-01  -7.0671438297954308e-03 9.6745490615239376e-04 -2.1454736574968411e-01  -7.0827028811388353e-03 1.0239259035574237e-03 -2.3396468750216323e-01  -7.0865195431971213e-03 1.0826039113351182e-03 -2.5339368917784394e-01  0.0000000000000000e+00 0.0000000000000000e+00 0.0000000000000000e+00  -4.8496593976963496e-04 -5.2130110193958752e-05 -1.3499114814438551e-03  -9.2255918881537923e-04 -2.4650691253971668e-05 -5.2871373509725166e-03  -1.3203611999935728e-03 1.3572734215840630e-05 -1.1587987412649221e-02  -1.6807398813351068e-03 5.9763008390041663e-05 -2.0026134624792188e-02  -2.0042152541405425e-03 1.1127819469459316e-04 -3.0386861999585728e-02  -2.2911980472571586e-03 1.6671500602975591e-04 -4.2460187395428117e-02  -2.5423950130710662e-03 2.2514335524554055e-04 -5.6040579304203628e-02  -2.7588339857975083e-03 2.8583120781552727e-04 -7.0927992371250123e-02  -2.9418640841359744e-03 3.4814597570173502e-04 -8.6929351972619195e-02  -3.0931654914095504e-03 4.1152333242178358e-04 -1.0386027313542906e-01  -3.2147633923794417e-03 4.7546043187515926e-04 -1.2154693143097715e-01  -3.3090413653731453e-03 5.3951783660631232e-04 -1.3982804117557912e-01  -3.3787524969156307e-03 6.0332452624704044e-04 -1.5855691191086796e-01  -3.4270278835296479e-03 6.6658406464147545e-04 -1.7760356194379179e-01  -3.4573830147158553e-03 7.2908147177392745e-04 -1.9685687251214973e-01  -3.4737245087610095e-03 7.9068997008571956e-04 -2.1622677033539811e-01  -3.4803640806243285e-03 8.5136792179941632e-04 -2.3564645011076391e-01  -3.4819735852167121e-03 9.1116054857008134e-04 -2.5507477128712153e-01  0.0000000000000000e+00 0.0000000000000000e+00 0.0000000000000000e+00  -4.6375669897133649e-04 -1.9416828884601027e-05 -1.3863848957752557e-03  -9.1126755988228669e-04 2.0910250070648914e-06 -5.3153070409866117e-03  -1.3126078836315522e-03 3.7884365122693126e-05 -1.1587739256814283e-02  -1.6761896076882112e-03 8.1672388887811317e-05 -1.9994236328024242e-02  -2.0025565148353614e-03 1.3080109428276700e-04 -3.0324050139192902e-02  -2.2921785999274772e-03 1.8388621588532014e-04 -4.2368527723748613e-02  -2.5457876719426351e-03 2.4002169844458923e-04 -5.5922608850602337e-02  -2.7644192128254818e-03 2.9849789766729900e-04 -7.0786416186520179e-02  -2.9494227832191629e-03 3.5870420033667168e-04 -8.6766920766394834e-02  -3.1024768529025063e-03 4.2009875505387049e-04 -1.0367972486863364e-01  -3.2256048097355924e-03 4.8220195893707138e-04 -1.2135095557256748e-01  -3.3211891754847738e-03 5.4459834763722367e-04 -1.3961925046747475e-01  -3.3919830853793337e-03 6.0694145959683525e-04 -1.5833781606109690e-01  -3.4411189826604109e-03 6.6895982445568688e-04 -1.7737654113500567e-01  -3.4721148238729439e-03 7.3046367990674765e-04 -1.9662414949673596e-01  -3.4888791020946655e-03 7.9135168390150978e-04 -2.1599037882064484e-01  -3.4957253285515209e-03 8.5160701096552178e-04 -2.3540818715697659e-01  -3.4974304235172457e-03 9.1124696493174822e-04 -2.5483612757952817e-01  0.0000000000000000e+00 0.0000000000000000e+00 0.0000000000000000e+00  -4.5612307678891752e-04 2.3188010578839094e-06 -1.4006348626336214e-03  -9.0383043948300110e-04 2.5431598618952237e-05 -5.3136356099884006e-03  -1.3078078514794607e-03 6.0154668650937211e-05 -1.1559271343828321e-02  -1.6739727527904642e-03 1.0207443425211671e-04 -1.9936721280384470e-02  -2.0027974433050422e-03 1.4910155501690281e-04 -3.0238384003472729e-02  -2.2947036967093334e-03 2.0003567549877686e-04 -4.2256761512950415e-02  -2.5504101947236560e-03 2.5404669656974092e-04 -5.5787214312712767e-02  -2.7709482029640298e-03 3.1046384374015752e-04 -7.0630001991283761e-02  -2.9576654475852856e-03 3.6870343432543316e-04 -8.6592114015588792e-02  -3.1122400502350800e-03 4.2824694539652004e-04 -1.0348911300141467e-01  -3.2366963879853039e-03 4.8863731875693826e-04 -1.2114705004169463e-01  -3.3334192665660520e-03 5.4948175277985288e-04 -1.3940445778998978e-01  -3.4051654067468254e-03 6.1045677509322777e-04 -1.5811441092070685e-01  -3.4550721432608520e-03 6.7131414332040286e-04 -1.7714663957367321e-01  -3.4866632856791822e-03 7.3188728273052483e-04 -1.9638968130306161e-01  -3.5038521287189110e-03 7.9209797177610117e-04 -2.1575305798542804e-01  -3.5109531062051677e-03 8.5195441507322669e-04 -2.3516947575423264e-01  -3.5127784374755387e-03 9.1147828750646142e-04 -2.5459717179004610e-01  0.0000000000000000e+00 0.0000000000000000e+00 0.0000000000000000e+00  -4.5275079601554284e-04 1.9892038724368878e-05 -1.3944724154240924e-03  -8.9979442910761509e-04 4.6561724163369526e-05 -5.2830175909629419e-03  -1.3058628179718377e-03 8.1353546818608031e-05 -1.1501149180056887e-02  -1.6743213761990529e-03 1.2193032528716668e-04 -1.9851396089918802e-02  -2.0053243193483552e-03 1.6707779477402663e-04 -3.0127542928801185e-02  -2.2992358580517722e-03 2.1597105015720421e-04 -4.2122673847693450e-02  -2.5567668924467517e-03 2.6792601673389382e-04 -5.5632367185389692e-02  -2.7789479745261433e-03 3.2233573500612734e-04 -7.0456933792625118e-02  -2.9671278940102000e-03 3.7865211437241680e-04 -8.6403333382554043e-02  -3.1229872017377873e-03 4.3638282198078056e-04 -1.0328705300347128e-01  -3.2485540735782913e-03 4.9509406972630325e-04 -1.2093403560389861e-01  -3.3462184701920999e-03 5.5441563824210863e-04 -1.3918267757476122e-01  -3.4187436190603517e-03 6.1404665196273557e-04 -1.5788589036488862e-01  -3.4692747092126709e-03 6.7376155361925888e-04 -1.7691321392439424e-01  -3.5013445942055489e-03 7.3341620658625285e-04 -1.9615296833271825e-01  -3.5188753466221558e-03 7.9295446476753220e-04 -2.1551443038643101e-01  -3.5261849316540477e-03 8.5241052552311651e-04 -2.3493003091127623e-01  -3.5281000636718991e-03 9.1184461260799795e-04 -2.5435766947181332e-01  0.0000000000000000e+00 0.0000000000000000e+00 0.0000000000000000e+00  -4.4910153928664007e-04 3.6357814150735372e-05 -1.3699152438926259e-03  -8.9645025948951009e-04 6.6812142573275827e-05 -5.2249402636686520e-03  -1.3047866250489139e-03 1.0219142591582705e-04 -1.1413729463295715e-02  -1.6755975212805346e-03 1.4169088658817875e-04 -1.9738087231296275e-02  -2.0087442706582235e-03 1.8507602075791451e-04 -2.9991152989258696e-02  -2.3045943197691683e-03 2.3197587763981953e-04 -4.1965834234717538e-02  -2.5638719552960433e-03 2.8189352597008418e-04 -5.5457640069427223e-02  -2.7876144662467820e-03 3.3430284226863860e-04 -7.0266810352148754e-02  -2.9771748042490081e-03 3.8869796762392713e-04 -8.6200212155311179e-02  -3.1342375575514653e-03 4.4461525571723763e-04 -1.0307321520215287e-01  -3.2608357549260779e-03 5.0164508545960705e-04 -1.2071161971213087e-01  -3.3593653720071157e-03 5.5944010528277796e-04 -1.3895365335356427e-01  -3.4325969473495057e-03 6.1772209309858940e-04 -1.5765203229240704e-01  -3.4836843463212264e-03 6.7628815917033895e-04 -1.7667607420194348e-01  -3.5161706251208968e-03 7.3501654541272845e-04 -1.9591384979143114e-01  -3.5339893337841153e-03 7.9387289701544352e-04 -2.1527436014822374e-01  -3.5414656242905075e-03 8.5291846849431076e-04 -2.3468973363342951e-01  -3.5434353955008688e-03 9.1227862776964333e-04 -2.5411752064573478e-01  0.0000000000000000e+00 0.0000000000000000e+00 0.0000000000000000e+00  -4.4319366245312858e-04 5.4000054070436969e-05 -1.3264403814984224e-03  -8.9185835231037221e-04 8.7504259030687329e-05 -5.1394181550697459e-03  -1.3029635058450014e-03 1.2333605051668658e-04 -1.1297183496945621e-02  -1.6763468375765754e-03 1.6173191399907071e-04 -1.9596840632708126e-02  -2.0117573117880805e-03 2.0334686021469559e-04 -2.9829165124794322e-02  -2.3096341653018686e-03 2.4823903445443419e-04 -4.1786151728494467e-02  -2.5707334219776095e-03 2.9609866835903544e-04 -5.5262928291099696e-02  -2.7961039256767374e-03 3.4648351749780261e-04 -7.0059526048907750e-02  -2.9871040296545284e-03 3.9893183462428851e-04 -8.5982649470187175e-02  -3.1454223500124103e-03 4.5300960463473490e-04 -1.0284750627497403e-01  -3.2730962401428323e-03 5.0833186775586727e-04 -1.2047971821821418e-01  -3.3725269458451811e-03 5.6457445074064997e-04 -1.3871731133579007e-01  -3.4464914886908659e-03 6.2148203520465150e-04 -1.5741277425611511e-01  -3.4981515687624648e-03 6.7887467252441473e-04 -1.7643517012160165e-01  -3.5310598148107579e-03 7.3665339273333217e-04 -1.9567228795301458e-01  -3.5491624474972799e-03 7.9480588133437602e-04 -2.1503282105612112e-01  -3.5567957341704542e-03 8.5342077268784245e-04 -2.3444856593514232e-01  -3.5587980835171894e-03 9.1270748115606151e-04 -2.5387671692611719e-01  0.0000000000000000e+00 0.0000000000000000e+00 0.0000000000000000e+00  -4.3344869085695429e-04 7.5529274643183699e-05 -1.2603826541625698e-03  -8.8391733500486165e-04 1.1042600032179067e-04 -5.0245172533393357e-03  -1.2982197121603493e-03 1.4596359452293984e-04 -1.1150722823165279e-02  -1.6744495804085200e-03 1.8289182345674595e-04 -1.9427231802053632e-02  -2.0123905727093424e-03 2.2254181828018822e-04 -2.9641281692755650e-02  -2.3125684804746359e-03 2.6529381525190558e-04 -4.1583390968652351e-02  -2.5757630925659766e-03 3.1098515403093124e-04 -5.5048040740612120e-02  -2.8030285542050060e-03 3.5924451457495002e-04 -6.9834928228703089e-02  -2.9957246041518171e-03 4.0965042729910523e-04 -8.5750528667269954e-02  -3.1555407477677805e-03 4.6179772753538443e