<?xml version="1.0"?>
<VTKFile type="UnstructuredGrid"  version="0.1"  >
<UnstructuredGrid>
<Piece  NumberOfPoints="760" NumberOfCells="3024">
<Points>
<DataArray  type="Float64"  NumberOfComponents="3"  format="ascii">0 0 0  0.05555555555555555 0 0  0.1111111111111111 0 0  0.1666666666666667 0 0  0.2222222222222222 0 0  0.2777777777777778 0 0  0.3333333333333333 0 0  0.3888888888888889 0 0  0.4444444444444444 0 0  0.5 0 0  0.5555555555555556 0 0  0.6111111111111112 0 0  0.6666666666666666 0 0  0.7222222222222222 0 0  0.7777777777777778 0 0  0.8333333333333334 0 0  0.8888888888888888 0 0  0.9444444444444444 0 0  1 0 0  0 0.01428571428571429 0  0.05555555555555555 0.01428571428571429 0  0.1111111111111111 0.01428571428571429 0  0.1666666666666667 0.01428571428571429 0  0.2222222222222222 0.01428571428571429 0  0.2777777777777778 0.01428571428571429 0  0.3333333333333333 0.01428571428571429 0  0.3888888888888889 0.01428571428571429 0  0.4444444444444444 0.01428571428571429 0  0.5 0.01428571428571429 0  0.5555555555555556 0.01428571428571429 0  0.6111111111111112 0.01428571428571429 0  0.6666666666666666 0.01428571428571429 0  0.7222222222222222 0.01428571428571429 0  0.7777777777777778 0.01428571428571429 0  0.8333333333333334 0.01428571428571429 0  0.8888888888888888 0.01428571428571429 0  0.9444444444444444 0.01428571428571429 0  1 0.01428571428571429 0  0 0.02857142857142857 0  0.05555555555555555 0.02857142857142857 0  0.1111111111111111 0.02857142857142857 0  0.1666666666666667 0.02857142857142857 0  0.2222222222222222 0.02857142857142857 0  0.2777777777777778 0.02857142857142857 0  0.3333333333333333 0.02857142857142857 0  0.3888888888888889 0.02857142857142857 0  0.4444444444444444 0.02857142857142857 0  0.5 0.02857142857142857 0  0.5555555555555556 0.02857142857142857 0  0.6111111111111112 0.02857142857142857 0  0.6666666666666666 0.02857142857142857 0  0.7222222222222222 0.02857142857142857 0  0.7777777777777778 0.02857142857142857 0  0.8333333333333334 0.02857142857142857 0  0.8888888888888888 0.02857142857142857 0  0.9444444444444444 0.02857142857142857 0  1 0.02857142857142857 0  0 0.04285714285714286 0  0.05555555555555555 0.04285714285714286 0  0.1111111111111111 0.04285714285714286 0  0.1666666666666667 0.04285714285714286 0  0.2222222222222222 0.04285714285714286 0  0.2777777777777778 0.04285714285714286 0  0.3333333333333333 0.04285714285714286 0  0.3888888888888889 0.04285714285714286 0  0.4444444444444444 0.04285714285714286 0  0.5 0.04285714285714286 0  0.5555555555555556 0.04285714285714286 0  0.6111111111111112 0.04285714285714286 0  0.6666666666666666 0.04285714285714286 0  0.7222222222222222 0.04285714285714286 0  0.7777777777777778 0.04285714285714286 0  0.8333333333333334 0.04285714285714286 0  0.8888888888888888 0.04285714285714286 0  0.9444444444444444 0.04285714285714286 0  1 0.04285714285714286 0  0 0.05714285714285715 0  0.05555555555555555 0.05714285714285715 0  0.1111111111111111 0.05714285714285715 0  0.1666666666666667 0.05714285714285715 0  0.2222222222222222 0.05714285714285715 0  0.2777777777777778 0.05714285714285715 0  0.3333333333333333 0.05714285714285715 0  0.3888888888888889 0.05714285714285715 0  0.4444444444444444 0.05714285714285715 0  0.5 0.05714285714285715 0  0.5555555555555556 0.05714285714285715 0  0.6111111111111112 0.05714285714285715 0  0.6666666666666666 0.05714285714285715 0  0.7222222222222222 0.05714285714285715 0  0.7777777777777778 0.05714285714285715 0  0.8333333333333334 0.05714285714285715 0  0.8888888888888888 0.05714285714285715 0  0.9444444444444444 0.05714285714285715 0  1 0.05714285714285715 0  0 0.07142857142857142 0  0.05555555555555555 0.07142857142857142 0  0.1111111111111111 0.07142857142857142 0  0.1666666666666667 0.07142857142857142 0  0.2222222222222222 0.07142857142857142 0  0.2777777777777778 0.07142857142857142 0  0.3333333333333333 0.07142857142857142 0  0.3888888888888889 0.07142857142857142 0  0.4444444444444444 0.07142857142857142 0  0.5 0.07142857142857142 0  0.5555555555555556 0.07142857142857142 0  0.6111111111111112 0.07142857142857142 0  0.6666666666666666 0.07142857142857142 0  0.7222222222222222 0.07142857142857142 0  0.7777777777777778 0.07142857142857142 0  0.8333333333333334 0.07142857142857142 0  0.8888888888888888 0.07142857142857142 0  0.9444444444444444 0.07142857142857142 0  1 0.07142857142857142 0  0 0.08571428571428573 0  0.05555555555555555 0.08571428571428573 0  0.1111111111111111 0.08571428571428573 0  0.1666666666666667 0.08571428571428573 0  0.2222222222222222 0.08571428571428573 0  0.2777777777777778 0.08571428571428573 0  0.3333333333333333 0.08571428571428573 0  0.3888888888888889 0.08571428571428573 0  0.4444444444444444 0.08571428571428573 0  0.5 0.08571428571428573 0  0.5555555555555556 0.08571428571428573 0  0.6111111111111112 0.08571428571428573 0  0.6666666666666666 0.08571428571428573 0  0.7222222222222222 0.08571428571428573 0  0.7777777777777778 0.08571428571428573 0  0.8333333333333334 0.08571428571428573 0  0.8888888888888888 0.08571428571428573 0  0.9444444444444444 0.08571428571428573 0  1 0.08571428571428573 0  0 0.1 0  0.05555555555555555 0.1 0  0.1111111111111111 0.1 0  0.1666666666666667 0.1 0  0.2222222222222222 0.1 0  0.2777777777777778 0.1 0  0.3333333333333333 0.1 0  0.3888888888888889 0.1 0  0.4444444444444444 0.1 0  0.5 0.1 0  0.5555555555555556 0.1 0  0.6111111111111112 0.1 0  0.6666666666666666 0.1 0  0.7222222222222222 0.1 0  0.7777777777777778 0.1 0  0.8333333333333334 0.1 0  0.8888888888888888 0.1 0  0.9444444444444444 0.1 0  1 0.1 0  0 0 0.01  0.05555555555555555 0 0.01  0.1111111111111111 0 0.01  0.1666666666666667 0 0.01  0.2222222222222222 0 0.01  0.2777777777777778 0 0.01  0.3333333333333333 0 0.01  0.3888888888888889 0 0.01  0.4444444444444444 0 0.01  0.5 0 0.01  0.5555555555555556 0 0.01  0.6111111111111112 0 0.01  0.6666666666666666 0 0.01  0.7222222222222222 0 0.01  0.7777777777777778 0 0.01  0.8333333333333334 0 0.01  0.8888888888888888 0 0.01  0.9444444444444444 0 0.01  1 0 0.01  0 0.01428571428571429 0.01  0.05555555555555555 0.01428571428571429 0.01  0.1111111111111111 0.01428571428571429 0.01  0.1666666666666667 0.01428571428571429 0.01  0.2222222222222222 0.01428571428571429 0.01  0.2777777777777778 0.01428571428571429 0.01  0.3333333333333333 0.01428571428571429 0.01  0.3888888888888889 0.01428571428571429 0.01  0.4444444444444444 0.01428571428571429 0.01  0.5 0.01428571428571429 0.01  0.5555555555555556 0.01428571428571429 0.01  0.6111111111111112 0.01428571428571429 0.01  0.6666666666666666 0.01428571428571429 0.01  0.7222222222222222 0.01428571428571429 0.01  0.7777777777777778 0.01428571428571429 0.01  0.8333333333333334 0.01428571428571429 0.01  0.8888888888888888 0.01428571428571429 0.01  0.9444444444444444 0.01428571428571429 0.01  1 0.01428571428571429 0.01  0 0.02857142857142857 0.01  0.05555555555555555 0.02857142857142857 0.01  0.1111111111111111 0.02857142857142857 0.01  0.1666666666666667 0.02857142857142857 0.01  0.2222222222222222 0.02857142857142857 0.01  0.2777777777777778 0.02857142857142857 0.01  0.3333333333333333 0.02857142857142857 0.01  0.3888888888888889 0.02857142857142857 0.01  0.4444444444444444 0.02857142857142857 0.01  0.5 0.02857142857142857 0.01  0.5555555555555556 0.02857142857142857 0.01  0.6111111111111112 0.02857142857142857 0.01  0.6666666666666666 0.02857142857142857 0.01  0.7222222222222222 0.02857142857142857 0.01  0.7777777777777778 0.02857142857142857 0.01  0.8333333333333334 0.02857142857142857 0.01  0.8888888888888888 0.02857142857142857 0.01  0.9444444444444444 0.02857142857142857 0.01  1 0.02857142857142857 0.01  0 0.04285714285714286 0.01  0.05555555555555555 0.04285714285714286 0.01  0.1111111111111111 0.04285714285714286 0.01  0.1666666666666667 0.04285714285714286 0.01  0.2222222222222222 0.04285714285714286 0.01  0.2777777777777778 0.04285714285714286 0.01  0.3333333333333333 0.04285714285714286 0.01  0.3888888888888889 0.04285714285714286 0.01  0.4444444444444444 0.04285714285714286 0.01  0.5 0.04285714285714286 0.01  0.5555555555555556 0.04285714285714286 0.01  0.6111111111111112 0.04285714285714286 0.01  0.6666666666666666 0.04285714285714286 0.01  0.7222222222222222 0.04285714285714286 0.01  0.7777777777777778 0.04285714285714286 0.01  0.8333333333333334 0.04285714285714286 0.01  0.8888888888888888 0.04285714285714286 0.01  0.9444444444444444 0.04285714285714286 0.01  1 0.04285714285714286 0.01  0 0.05714285714285715 0.01  0.05555555555555555 0.05714285714285715 0.01  0.1111111111111111 0.05714285714285715 0.01  0.1666666666666667 0.05714285714285715 0.01  0.2222222222222222 0.05714285714285715 0.01  0.2777777777777778 0.05714285714285715 0.01  0.3333333333333333 0.05714285714285715 0.01  0.3888888888888889 0.05714285714285715 0.01  0.4444444444444444 0.05714285714285715 0.01  0.5 0.05714285714285715 0.01  0.5555555555555556 0.05714285714285715 0.01  0.6111111111111112 0.05714285714285715 0.01  0.6666666666666666 0.05714285714285715 0.01  0.7222222222222222 0.05714285714285715 0.01  0.7777777777777778 0.05714285714285715 0.01  0.8333333333333334 0.05714285714285715 0.01  0.8888888888888888 0.05714285714285715 0.01  0.9444444444444444 0.05714285714285715 0.01  1 0.05714285714285715 0.01  0 0.07142857142857142 0.01  0.05555555555555555 0.07142857142857142 0.01  0.1111111111111111 0.07142857142857142 0.01  0.1666666666666667 0.07142857142857142 0.01  0.2222222222222222 0.07142857142857142 0.01  0.2777777777777778 0.07142857142857142 0.01  0.3333333333333333 0.07142857142857142 0.01  0.3888888888888889 0.07142857142857142 0.01  0.4444444444444444 0.07142857142857142 0.01  0.5 0.07142857142857142 0.01  0.5555555555555556 0.07142857142857142 0.01  0.6111111111111112 0.07142857142857142 0.01  0.6666666666666666 0.07142857142857142 0.01  0.7222222222222222 0.07142857142857142 0.01  0.7777777777777778 0.07142857142857142 0.01  0.8333333333333334 0.07142857142857142 0.01  0.8888888888888888 0.07142857142857142 0.01  
[...]
<PointData  Vectors="f_33"> 
<DataArray  type="Float64"  Name="f_33"  NumberOfComponents="3" format="ascii">0.0000000000000000e+00 0.0000000000000000e+00 0.0000000000000000e+00  3.5133522517768879e-03 2.2248260079562026e-04 5.0409897285033922e-03  6.5577924891417035e-03 -1.4351019662832757e-04 1.9323400086134725e-02  9.3366432823613257e-03 -7.3452431078714013e-04 4.2199559405498882e-02  1.1853788458050475e-02 -1.4905587348004168e-03 7.2853874088093767e-02  1.4113165026650878e-02 -2.3806827070049722e-03 1.1051378097063469e-01  1.6118049050398001e-02 -3.3844580859581060e-03 1.5442286357483168e-01  1.7873366275061753e-02 -4.4851686795390443e-03 2.0383958915815931e-01  1.9386060909767477e-02 -5.6677244684780591e-03 2.5804080499890486e-01  2.0665230530125429e-02 -6.9180084845528256e-03 3.1632695335357752e-01  2.1722273275784604e-02 -8.2227332286610565e-03 3.7802823402314545e-01  2.2571040561041863e-02 -9.5694857258916723e-03 4.4251143373671653e-01  2.3227976704345118e-02 -1.0946846641587984e-02 5.0918727138122077e-01  2.3712237519710529e-02 -1.2344541043037243e-02 5.7751815481147561e-01  2.4045785634854062e-02 -1.3753604997047728e-02 6.4702626449955447e-01  2.4253464322778470e-02 -1.5166563326121004e-02 7.1730188964004837e-01  2.4363068875410822e-02 -1.6577617527121887e-02 7.8801195424057857e-01  2.4405478407597308e-02 -1.7982828888383387e-02 8.5890876405244754e-01  2.4414567015263691e-02 -1.9380451771271456e-02 9.2983986963898291e-01  0.0000000000000000e+00 0.0000000000000000e+00 0.0000000000000000e+00  3.3511181309483023e-03 4.8615485985775041e-05 5.1893986726461181e-03  6.4648577520226378e-03 -2.9768875317360400e-04 1.9428408886135985e-02  9.3023488397234282e-03 -8.7411390422236022e-04 4.2200168704881053e-02  1.1874199406157322e-02 -1.6160253274107605e-03 7.2739166941467578e-02  1.4184066457565545e-02 -2.4922564614699356e-03 1.1028662381095414e-01  1.6235240508176742e-02 -3.4824063887967751e-03 1.5409073329456516e-01  1.8032663751198091e-02 -4.5698592085755829e-03 2.0341161229717347e-01  1.9583281003429293e-02 -5.7396395529496179e-03 2.5752670710775155e-01  2.0896191122886001e-02 -6.9777537413746741e-03 3.1573663649559996e-01  2.1982808980234400e-02 -8.2710460883868124e-03 3.7737157592538706e-01  2.2857026836919880e-02 -9.6072432947491970e-03 4.4179816429222424e-01  2.3535359458480457e-02 -1.0975072382335561e-02 5.0842687333935255e-01  2.4037066806318730e-02 -1.2364410047865834e-02 5.7671976896836141e-01  2.4384252697857052e-02 -1.3766447600873448e-02 6.4619859184396056e-01  2.4601940052196850e-02 -1.5173866648101464e-02 7.1645308582549949e-01  2.4718134640433057e-02 -1.6581024362445396e-02 7.8714950719753551e-01  2.4763966293335778e-02 -1.7984118040608291e-02 8.5803931463009875e-01  2.4774224141396902e-02 -1.9381111933151861e-02 9.2896879053943193e-01  0.0000000000000000e+00 0.0000000000000000e+00 0.0000000000000000e+00  3.3372558010564095e-03 -8.4155472045675534e-05 5.2477427069759237e-03  6.4792326328629388e-03 -4.4828688426895011e-04 1.9430228412438529e-02  9.3600869278722756e-03 -1.0197345136446561e-03 4.2101554171537992e-02  1.1975281090047833e-02 -1.7502290865455050e-03 7.2533743454139349e-02  1.4325637206453638e-02 -2.6129601483291407e-03 1.0997819604928051e-01  1.6413739588292009e-02 -3.5890995147988612e-03 1.5368688110934539e-01  1.8244346987239719e-02 -4.6626396536973763e-03 2.0292130074235853e-01  1.9824383342930550e-02 -5.8188968425618168e-03 2.5695936281373360e-01  2.1162996069610952e-02 -7.0440677017319740e-03 3.1510175744097857e-01  2.2271693663004029e-02 -8.3251567673688163e-03 3.7667853685516123e-01  2.3164500341835311e-02 -9.6500450127435609e-03 4.4105609190111211e-01  2.3858100077114273e-02 -1.1007615605472084e-02 5.0764454370111745e-01  2.4371960217841403e-02 -1.2387905124011368e-02 5.7590550950799568e-01  2.4728431572110569e-02 -1.3782267767958644e-02 6.4536018133329598e-01  2.4952823609153123e-02 -1.5183548384516849e-02 7.1559764936111403e-01  2.5073459473989257e-02 -1.6586264466894356e-02 7.8628340155395260e-01  2.5121793780597642e-02 -1.7986770389245142e-02 8.5716798557721074e-01  2.5133016590252775e-02 -1.9382979816121460e-02 9.2809647435794107e-01  0.0000000000000000e+00 0.0000000000000000e+00 0.0000000000000000e+00  3.3479666812061414e-03 -1.9862026907902235e-04 5.2308464013837812e-03  6.5182175032831207e-03 -5.9362384681244454e-04 1.9325521731744143e-02  9.4406749954529783e-03 -1.1676765234850633e-03 4.1895464574938125e-02  1.2097314563164679e-02 -1.8893649858192788e-03 7.2227668602009257e-02  1.4486024311357634e-02 -2.7392495069453880e-03 1.0957858735483803e-01  1.6608845861269064e-02 -3.7012762612768863e-03 1.5320208645428537e-01  1.8470443938637161e-02 -4.7605218157022585e-03 2.0236035785209738e-01  2.0077765559548221e-02 -5.9027756335656625e-03 2.5633146780645405e-01  2.1440035732509615e-02 -7.1144950173107728e-03 3.1441600472373038e-01  2.2568881381414316e-02 -8.3828739584620796e-03 3.7594376706887939e-01  2.3478482795522320e-02 -9.6959616880138468e-03 4.4028077900422602e-01  2.4185717669771848e-02 -1.1042805955727606e-02 5.0683669374485685e-01  2.4710285909685437e-02 -1.2413609752728968e-02 5.7507256079196822e-01  2.5074811165232486e-02 -1.3799896098053269e-02 6.4450890244959702e-01  2.5304916812715843e-02 -1.5194678500341289e-02 7.1473403429793414e-01  2.5429274156653289e-02 -1.6592639225910283e-02 7.8541256108497104e-01  2.5479680732422828e-02 -1.7990301657092405e-02 8.5629402191493731e-01  2.5491670390894960e-02 -1.9385758039801332e-02 9.2722220861389926e-01  0.0000000000000000e+00 0.0000000000000000e+00 0.0000000000000000e+00  3.3526741589895107e-03 -3.1015768614968403e-04 5.1447035247259142e-03  6.5591268430141908e-03 -7.3804799353461908e-04 1.9119377680520751e-02  9.5263658830576220e-03 -1.3176268741754114e-03 4.1582415962592642e-02  1.2225346652524638e-02 -2.0318928693903787e-03 7.1819730791518654e-02  1.4652403312576856e-02 -2.8693005154326995e-03 1.0908598606777023e-01  1.6809605098361786e-02 -3.8171269465194489e-03 1.5263441238065245e-01  1.8701731655334747e-02 -4.8618046594606371e-03 2.0172691419369357e-01  2.0335828926407919e-02 -5.9897129651637591e-03 2.5564129387515222e-01  2.1721229584786846e-02 -7.1876184112015674e-03 3.1367781702262815e-01  2.2869692634177621e-02 -8.4429253778235992e-03 3.7516587827967240e-01  2.3795562076591600e-02 -9.7438615660289801e-03 4.3947100806913086e-01  2.4515914919358887e-02 -1.1079645524783594e-02 5.0600227017690957e-01  2.5050688673881782e-02 -1.2440651524318079e-02 5.7422002450499121e-01  2.5422784993916685e-02 -1.3818576055517845e-02 6.4364400020682777e-01  2.5658147825590751e-02 -1.5206606319236367e-02 7.1386161446240315e-01  2.5785810172795850e-02 -1.6599594090326356e-02 7.8453646918546394e-01  2.5837934559377797e-02 -1.7994241802524878e-02 8.5541698618812922e-01  2.5850449594902174e-02 -1.9388999789938140e-02 9.2634564122044694e-01  0.0000000000000000e+00 0.0000000000000000e+00 0.0000000000000000e+00  3.3401544209672907e-03 -4.3181899954710773e-04 4.9861993670698920e-03  6.5910044211985215e-03 -8.8860438419830021e-04 1.8811183998471852e-02  9.6075628832336269e-03 -1.4721507366104133e-03 4.1162091423510794e-02  1.2350825068683605e-02 -2.1784422127203856e-03 7.1309271010355391e-02  1.4817198699939669e-02 -3.0030319849008958e-03 1.0849953513083122e-01  1.7009400877183410e-02 -3.9363129334527049e-03 1.5198296139799486e-01  1.8932525914006414e-02 -4.9660553690258954e-03 2.0102011300813893e-01  2.0593785157361981e-02 -6.0792412720495825e-03 2.5488806014269133e-01  2.2002640537596919e-02 -7.2629573158048055e-03 3.1288650290644876e-01  2.3170987740564145e-02 -8.5048253872027860e-03 3.7434427267248355e-01  2.4113332342999835e-02 -9.7932568232858373e-03 4.3862627485004457e-01  2.4846945890594763e-02 -1.1117645418673031e-02 5.0514086008763159e-01  2.5391997770411658e-02 -1.2468541064932968e-02 5.7334757535689485e-01  2.5771661670630417e-02 -1.3837818426091050e-02 6.4276523174300415e-01  2.6012196848004893e-02 -1.5218844343241571e-02 7.1298022177790832e-01  2.6143001476810278e-02 -1.6606647142628623e-02 7.8365501957881922e-01  2.6196630189790335e-02 -1.7998118661276763e-02 8.5453681508119750e-01  2.6209470040261126e-02 -1.9392200760021756e-02 9.2546675453143112e-01  0.0000000000000000e+00 0.0000000000000000e+00 0.0000000000000000e+00  3.2945942201404216e-03 -5.7489075802093421e-04 4.7403878059343509e-03  6.5955677335950477e-03 -1.0519634369639517e-03 1.8392756589351609e-02  9.6658200630778610e-03 -1.6344622187794118e-03 4.0630402759631042e-02  1.2456170946798989e-02 -2.3304197193392295e-03 7.0693614779040445e-02  1.4964289024801302e-02 -3.1410493210786488e-03 1.0781717657096489e-01  1.7193788063919135e-02 -4.0590851001640720e-03 1.5124605662314189e-01  1.9150114824092897e-02 -5.0733507078307453e-03 2.0023858102147729e-01  2.0840643204021649e-02 -6.1713340287225761e-03 2.5407066480618890e-01  2.2274950357460025e-02 -7.3404101096232483e-03 3.1204121273663360e-01  2.3465049313660502e-02 -8.5684094257889500e-03 3.7347833594852692e-01  2.4425584835561068e-02 -9.8439264518352526e-03 4.3774618247827746e-01  2.5173998797126201e-02 -1.1156533019525492e-02 5.0425226370270304e-01  2.5730667113806165e-02 -1.2496958870100945e-02 5.7245518731162148e-01  2.6119009424988814e-02 -1.3857262008732156e-02 6.4187271794841572e-01  2.6365573383542160e-02 -1.5230995834730915e-02 7.1209009261272571e-01  2.6500100902277234e-02 -1.6613375163700695e-02 7.8276852406846209e-01  2.6555557321183799e-02 -1.8001482854863776e-02 8.5365384601758432e-01  2.6568759771190817e-02 -1.9394856346107825e-02 9.2458586898631312e-01  0.0000000000000000e+00 0.0000000000000000e+00 0.0000000000000000e+00  3.1482562482476927e-03 -7.3037497409121340e-04 4.4001413019235788e-03  6.4969318022417913e-03 -1.2194448994820174e-03 1.7864799875385775e-02  9.6265985357874458e-03 -1.7960696726924280e-03 3.9992432007317426e-02  1.2471392400918734e-02 -2.4796741896042640e-03 6.9979145572535373e-02  1.5029808373941009e-02 -3.2757976751525667e-03 1.0704548179115926e-01  1.7305597634255310e-02 -4.1786405497054356e-03 1.5043001898865035e-01  1.9304153967216638e-02 -5.1777013095113938e-03 1.9938821978764812e-01  2.1032806707054652e-02 -6.2608218982498154e-03 2.5319452458433822e-01  2.2501118567325590e-02 -7.4156048654688712e-03 3.1114685351984361e-01  2.3721115881240949e-02 -8.6300632593009369e-03 3.7257245755435386e-01  2.4707484791209412e-02 -9.8929618772998305e-03 4.3683460342717034e-01  2.5477739143293130e-02 -1.1194042719784181e-02 5.0333984259521947e-01  2.6052360439967073e-02 -1.2524209352418778e-02 5.7154572173249563e-01  2.6454910451396169e-02 -1.3875697943170250e-02 6.4096883509685909e-01  2.6712118786390598e-02 -1.5242244528590255e-02 7.1119313755979707e-01  2.6853954492859024e-02 -1.6619255174762867e-02 7.8187844832749609e-01  2.6913743875636220e-02 -1.8003974974206482e-02 8.5276905475824782e-01  2.6928380333971082e-02 -1.9396642038568175e-02 9.2370342829259755e-01  0.0000000000000000e+00 0.0000000000000000e+00 0.0000000000000000e+00  1.6249297419695669e-03 8.9966054873129734e-05 4.8922636080888388e-03  3.0834218473481333e-03 -2.4318404779520670e-04 1.9185868270644595e-02  4.4080163682046272e-03 -7.5659886256196839e-04 4.2073195225587105e-02  5.6088759994974624e-03 -1.4288391907983150e-03 7.2739134711862705e-02  6.6880617684402241e-03 -2.2378084041909125e-03 1.1041076566372117e-01  7.6467878793077693e-03 -3.1659228575358490e-03 1.5433150050898617e-01  8.4871752575626114e-03 -4.1975020627640748e-03 2.0375967412251406e-01  9.2123892072415829e-03 -5.3178437035521818e-03 2.5797202284804444e-01  9.8266490136567630e-03 -6.5129554063933955e-03 3.1626888316671886e-01  1.0335272668713189e-02 -7.7695464538439282e-03 3.7798034618251608e-01  1.0744740214923108e-02 -9.0751196176945097e-03 4.4247308437654653e-01  1.1062757172002058e-02 -1.0418104332317322e-02 5.0915769657086085e-01  1.1298310208383578e-02 -1.1788009372273997e-02 5.7749646534021937e-01  1.1461712521128513e-02 -1.3175586643665339e-02 6.4701144149395817e-01  1.1564639660253858e-02 -1.4573002996312930e-02 7.1729278088128101e-01  1.1620164631945960e-02 -1.5974015139677899e-02 7.8800726927884346e-01  1.1642815659585318e-02 -1.7374111454790585e-02 8.5890705955308166e-01  1.1648343309299201e-02 -1.8770741244843268e-02 9.2983911828282817e-01  0.0000000000000000e+00 0.0000000000000000e+00 0.0000000000000000e+00  1.5906721342075283e-03 -1.9034401520142480e-05 5.0258757975699675e-03  3.1204664704219728e-03 -3.3164672713410852e-04 1.9289794185215689e-02  4.4924904476528740e-03 -8.3700274969818861e-04 4.2073999115429216e-02  5.7366284403690352e-03 -1.5013486847238878e-03 7.2624964223461541e-02  6.8547870418394392e-03 -2.3024766394250636e-03 1.1018417477051272e-01  7.8484025666687926e-03 -3.2228520084542898e-03 1.5399986835524443e-01  8.7197442530009238e-03 -4.2468724919181751e-03 2.0333209693706272e-01  9.4720864910755164e-03 -5.3599096464338131e-03 2.5745822077895653e-01  1.0109755913779276e-02 -6.5480439889919551e-03 3.1567876314047189e-01  1.0638197377648989e-02 -7.7980601994554633e-03 3.7732379567346386e-01  1.1064047487684853e-02 -9.0975401032380304e-03 4.4175984590589484e-01  1.1395203328235983e-02 -1.0434995775582101e-02 5.0839726765184634e-01  1.1640881467107397e-02 -1.1800021673099747e-02 5.7669800339627320e-01  1.1811665743628229e-02 -1.3183457680873379e-02 6.4618366594295096e-01  1.1919543856262782e-02 -1.4577560279494769e-02 7.1644386785750336e-01  1.1977937714806715e-02 -1.5976177792792506e-02 7.8714473060309187e-01  1.2001772974088248e-02 -1.7374890052127199e-02 8.5803756071573634e-01  1.2007700710277040e-02 -1.8771021770053315e-02 9.2896820531640600e-01  0.0000000000000000e+00 0.0000000000000000e+00 0.0000000000000000e+00  1.6019362939810133e-03 -9.2017024523291299e-05 5.0793087777918850e-03  3.1700068038955876e-03 -4.1060185263606269e-04 1.9285590215058136e-02  4.5862317833769038e-03 -9.1269885356070517e-04 4.1972499006379643e-02  5.8714506768096902e-03 -1.5708393773888017e-03 7.2417816875178551e-02  7.0270594141066210e-03 -2.3648953929511322e-03 1.0987452495454512e-01  8.0543288154196844e-03 -3.2779984746564893e-03 1.5359506010427612e-01  8.9555396770739162e-03 -4.2948170494865514e-03 2.0284101039630942e-01  9.7340339247173474e-03 -5.4008584872612883e-03 2.5689024926992632e-01  1.0394238571974431e-02 -6.5822963246570552e-03 3.1504338890158246e-01  1.0941731591732170e-02 -7.8259960280631091e-03 3.7663038324727932e-01  1.1383317624459438e-02 -9.1196183243702194e-03 4.4101751290877667e-01  1.1727098853027749e-02 -1.0451755608902841e-02 5.0761478052514908e-01  1.1982535998801672e-02 -1.1812084790485020e-02 5.7588367870214197e-01  1.2160497797461974e-02 -1.3191529909965985e-02 6.4534527003823372e-01  1.2273297741416302e-02 -1.4582432175333908e-02 7.1558851172974203e-01  1.2334718011429538e-02 -1.5978725611719802e-02 7.8627875576344231e-01  1.2360069819514664e-02 -1.7376085778523391e-02 8.5716639806671424e-01  1.2366572561284777e-02 -1.8771829888646143e-02 9.2809611982834839e-01  0.0000000000000000e+00 0.0000000000000000e+00 0.0000000000000000e+00  1.6267005767563918e-03 -1.5296056531106459e-04 5.0588007123779947e-03  3.2307617178877045e-03 -4.8425576459649300e-04 1.9176443941100126e-02  4.6894509416930928e-03 -9.8700409330444239e-04 4.1763324131625923e-02  6.0147411470968153e-03 -1.6406205029429514e-03 7.2109581424920535e-02  7.2068205894440553e-03 -2.4281680448351140e-03 1.0947325397528350e-01  8.2667683301558947e-03 -3.3341584208199278e-03 1.5310890582012193e-01  9.1968972152801313e-03 -4.3437895301778710e-03 2.0227892939092265e-01  1.0000629713472937e-02 -5.4427970479769593e-03 2.5626140317587104e-01  1.0682504093392938e-02 -6.6174809062411839e-03 3.1435685459616819e-01  1.1248241994700595e-02 -7.8547998813081367e-03 3.7589498914000308e-01  1.1704826865852433e-02 -9.1424985212978909e-03 4.4024172156416191e-01  1.2060577077064063e-02 -1.0469251646060390e-02 5.0680658570482762e-01  1.2325208851707785e-02 -1.1824819675298151e-02 5.7505050481998876e-01  1.2509887370440620e-02 -1.3200211383827527e-02 6.4449386989239488e-01  1.2627264282580441e-02 -1.4587852507115423e-02 7.1472486147992986e-01  1.2691496533432654e-02 -1.5981760935581769e-02 7.8540794718036377e-01  1.2718282056899179e-02 -1.7377712461287768e-02 8.5629251780870663e-01  1.2725295238272113e-02 -1.8773153061139664e-02 9.2722200047968473e-01  0.0000000000000000e+00 0.0000000000000000e+00 0.0000000000000000e+00  1.6496855829326530e-03 -2.1277659249720627e-04 4.9715246353664545e-03  3.2935197398654163e-03 -5.5754295589917412e-04 1.8967606045604817e-02  4.7955179881268390e-03 -1.0625502983816531e-03 4.1447662517713216e-02  6.1611224272445728e-03 -1.7123628800985360e-03 7.1699530398390540e-02  7.3895569563925496e-03 -2.4935844721146721e-03 1.0897891787483660e-01  8.4819525067096561e-03 -3.3923940016646263e-03 1.5253976523299184e-01  9.4407305665067248e-03 -4.3946711827580944e-03 2.0164423288774055e-01  1.0269420590664260e-02 -5.4864435930230826e-03 2.5557016395942589e-01  1.0972683149995955e-02 -6.6541635711207265e-03 3.1361777423110770e-01  1.1556389350820593e-02 -7.8848944211131373e-03 3.7511636873439508e-01  1.2027705290843058e-02 -9.1664701157177092e-03 4.3943136863903315e-01  1.2395168695797480e-02 -1.0487651434271906e-02 5.0597171719941680e-01  1.2668754285599415e-02 -1.1838285135326346e-02 5.7419764638412596e-01  1.2859926748098266e-02 -1.3209467382983708e-02 6.4362875211211534e-01  1.2981680083854214e-02 -1.4593710944635610e-02 7.1385231448835340e-01  1.3048555707063472e-02 -1.5985118547445991e-02 7.8453179687422059e-01  1.3076649779289960e-02 -1.7379570238031539e-02 8.5541547757871761e-01  1.3084058565234483e-02 -1.8774756860017186e-02 9.2634548102128100e-01  0.0000000000000000e+00 0.0000000000000000e+00 0.0000000000000000e+00  1.6646152281089978e-03 -2.7971081887052045e-04 4.8155640326213219e-03  3.3519427535552062e-03 -6.3529297948432717e-04 1.8659078918453861e-02  4.8991471346577307e-03 -1.1417899816515177e-03 4.1026112417839052e-02  6.3058705852571352e-03 -1.7874464159418544e-03 7.1187810783806219e-02  7.5710837959822030e-03 -2.5620687470089029e-03 1.0839132172185077e-01  8.6962372492254258e-03 -3.4534054795537033e-03 1.5188729362623613e-01  9.6839270538264244e-03 -4.4480191046713819e-03 2.0093652807983814e-01  1.0537805900046410e-02 -5.5322418475317386e-03 2.5481613685810972e-01  1.1262660607375694e-02 -6.6926872150834208e-03 3.1282577165440723e-01  1.1864511348040374e-02 -7.9165286418553544e-03 3.7429417450580243e-01  1.2350704596252083e-02 -9.1916936978704514e-03 4.3858614110546446e-01  1.2729994359531132e-02 -1.0507032804379054e-02 5.0510990073203743e-01  1.3012610468028356e-02 -1.1852482673546582e-02 5.7332487141117328e-01  1.3210313658564220e-02 -1.3219230681039938e-02 6.4274972992791979e-01  1.3336437499714172e-02 -1.4599881024027858e-02 7.1297073054321214e-01  1.3405912228755746e-02 -1.5988624776384356e-02 7.8365020730938073e-01  1.3435252676559090e-02 -1.7381447699619548e-02 8.5453521153688450e-01  1.3442959090987951e-02 -1.8776372823010871e-02 9.2546653587014382e-01  0.0000000000000000e+00 0.0000000000000000e+00 0.0000000000000000e+00  1.6666941871349447e-03 -3.6370187720542702e-04 4.5775791827397548e-03  3.3991756318004630e-03 -7.2404047190010570e-04 1.8243745938531175e-02  4.9930824156730986e-03 -1.2290429065836199e-03 4.0495732336879975e-02  6.4418845428401610e-03 -1.8689591989411094e-03 7.0572811354486883e-02  7.7448068906655117e-03 -2.6360275002594237e-03 1.0770932054150122e-01  8.9036756541155272e-03 -3.5191681344050995e-03 1.5115057840669424e-01  9.9212312053668563e-03 -4.5054803570457238e-03 2.0015506965426272e-01  1.0801225591602237e-02 -5.5815556567364900e-03 2.5399872305403454e-01  1.1548556760482578e-02 -6.7341568206108369e-03 3.1198038581204190e-01  1.2169382101784781e-02 -7.9505668429736328e-03 3.7342807733078281e-01  1.2671217357439982e-02 -9.2188105064754475e-03 4.3770583596347079e-01  1.3063021672260746e-02 -1.0527833224810787e-02 5.0422105263245565e-01  1.3355268626411943e-02 -1.1867667862415348e-02 5.7243220732712363e-01  1.3560003434863495e-02 -1.3229