<?xml version="1.0"?>
<VTKFile type="UnstructuredGrid"  version="0.1"  >
<UnstructuredGrid>
<Piece  NumberOfPoints="760" NumberOfCells="3024">
<Points>
<DataArray  type="Float64"  NumberOfComponents="3"  format="ascii">0 0 0  0.05555555555555555 0 0  0.1111111111111111 0 0  0.1666666666666667 0 0  0.2222222222222222 0 0  0.2777777777777778 0 0  0.3333333333333333 0 0  0.3888888888888889 0 0  0.4444444444444444 0 0  0.5 0 0  0.5555555555555556 0 0  0.6111111111111112 0 0  0.6666666666666666 0 0  0.7222222222222222 0 0  0.7777777777777778 0 0  0.8333333333333334 0 0  0.8888888888888888 0 0  0.9444444444444444 0 0  1 0 0  0 0.01428571428571429 0  0.05555555555555555 0.01428571428571429 0  0.1111111111111111 0.01428571428571429 0  0.1666666666666667 0.01428571428571429 0  0.2222222222222222 0.01428571428571429 0  0.2777777777777778 0.01428571428571429 0  0.3333333333333333 0.01428571428571429 0  0.3888888888888889 0.01428571428571429 0  0.4444444444444444 0.01428571428571429 0  0.5 0.01428571428571429 0  0.5555555555555556 0.01428571428571429 0  0.6111111111111112 0.01428571428571429 0  0.6666666666666666 0.01428571428571429 0  0.7222222222222222 0.01428571428571429 0  0.7777777777777778 0.01428571428571429 0  0.8333333333333334 0.01428571428571429 0  0.8888888888888888 0.01428571428571429 0  0.9444444444444444 0.01428571428571429 0  1 0.01428571428571429 0  0 0.02857142857142857 0  0.05555555555555555 0.02857142857142857 0  0.1111111111111111 0.02857142857142857 0  0.1666666666666667 0.02857142857142857 0  0.2222222222222222 0.02857142857142857 0  0.2777777777777778 0.02857142857142857 0  0.3333333333333333 0.02857142857142857 0  0.3888888888888889 0.02857142857142857 0  0.4444444444444444 0.02857142857142857 0  0.5 0.02857142857142857 0  0.5555555555555556 0.02857142857142857 0  0.6111111111111112 0.02857142857142857 0  0.6666666666666666 0.02857142857142857 0  0.7222222222222222 0.02857142857142857 0  0.7777777777777778 0.02857142857142857 0  0.8333333333333334 0.02857142857142857 0  0.8888888888888888 0.02857142857142857 0  0.9444444444444444 0.02857142857142857 0  1 0.02857142857142857 0  0 0.04285714285714286 0  0.05555555555555555 0.04285714285714286 0  0.1111111111111111 0.04285714285714286 0  0.1666666666666667 0.04285714285714286 0  0.2222222222222222 0.04285714285714286 0  0.2777777777777778 0.04285714285714286 0  0.3333333333333333 0.04285714285714286 0  0.3888888888888889 0.04285714285714286 0  0.4444444444444444 0.04285714285714286 0  0.5 0.04285714285714286 0  0.5555555555555556 0.04285714285714286 0  0.6111111111111112 0.04285714285714286 0  0.6666666666666666 0.04285714285714286 0  0.7222222222222222 0.04285714285714286 0  0.7777777777777778 0.04285714285714286 0  0.8333333333333334 0.04285714285714286 0  0.8888888888888888 0.04285714285714286 0  0.9444444444444444 0.04285714285714286 0  1 0.04285714285714286 0  0 0.05714285714285715 0  0.05555555555555555 0.05714285714285715 0  0.1111111111111111 0.05714285714285715 0  0.1666666666666667 0.05714285714285715 0  0.2222222222222222 0.05714285714285715 0  0.2777777777777778 0.05714285714285715 0  0.3333333333333333 0.05714285714285715 0  0.3888888888888889 0.05714285714285715 0  0.4444444444444444 0.05714285714285715 0  0.5 0.05714285714285715 0  0.5555555555555556 0.05714285714285715 0  0.6111111111111112 0.05714285714285715 0  0.6666666666666666 0.05714285714285715 0  0.7222222222222222 0.05714285714285715 0  0.7777777777777778 0.05714285714285715 0  0.8333333333333334 0.05714285714285715 0  0.8888888888888888 0.05714285714285715 0  0.9444444444444444 0.05714285714285715 0  1 0.05714285714285715 0  0 0.07142857142857142 0  0.05555555555555555 0.07142857142857142 0  0.1111111111111111 0.07142857142857142 0  0.1666666666666667 0.07142857142857142 0  0.2222222222222222 0.07142857142857142 0  0.2777777777777778 0.07142857142857142 0  0.3333333333333333 0.07142857142857142 0  0.3888888888888889 0.07142857142857142 0  0.4444444444444444 0.07142857142857142 0  0.5 0.07142857142857142 0  0.5555555555555556 0.07142857142857142 0  0.6111111111111112 0.07142857142857142 0  0.6666666666666666 0.07142857142857142 0  0.7222222222222222 0.07142857142857142 0  0.7777777777777778 0.07142857142857142 0  0.8333333333333334 0.07142857142857142 0  0.8888888888888888 0.07142857142857142 0  0.9444444444444444 0.07142857142857142 0  1 0.07142857142857142 0  0 0.08571428571428573 0  0.05555555555555555 0.08571428571428573 0  0.1111111111111111 0.08571428571428573 0  0.1666666666666667 0.08571428571428573 0  0.2222222222222222 0.08571428571428573 0  0.2777777777777778 0.08571428571428573 0  0.3333333333333333 0.08571428571428573 0  0.3888888888888889 0.08571428571428573 0  0.4444444444444444 0.08571428571428573 0  0.5 0.08571428571428573 0  0.5555555555555556 0.08571428571428573 0  0.6111111111111112 0.08571428571428573 0  0.6666666666666666 0.08571428571428573 0  0.7222222222222222 0.08571428571428573 0  0.7777777777777778 0.08571428571428573 0  0.8333333333333334 0.08571428571428573 0  0.8888888888888888 0.08571428571428573 0  0.9444444444444444 0.08571428571428573 0  1 0.08571428571428573 0  0 0.1 0  0.05555555555555555 0.1 0  0.1111111111111111 0.1 0  0.1666666666666667 0.1 0  0.2222222222222222 0.1 0  0.2777777777777778 0.1 0  0.3333333333333333 0.1 0  0.3888888888888889 0.1 0  0.4444444444444444 0.1 0  0.5 0.1 0  0.5555555555555556 0.1 0  0.6111111111111112 0.1 0  0.6666666666666666 0.1 0  0.7222222222222222 0.1 0  0.7777777777777778 0.1 0  0.8333333333333334 0.1 0  0.8888888888888888 0.1 0  0.9444444444444444 0.1 0  1 0.1 0  0 0 0.01  0.05555555555555555 0 0.01  0.1111111111111111 0 0.01  0.1666666666666667 0 0.01  0.2222222222222222 0 0.01  0.2777777777777778 0 0.01  0.3333333333333333 0 0.01  0.3888888888888889 0 0.01  0.4444444444444444 0 0.01  0.5 0 0.01  0.5555555555555556 0 0.01  0.6111111111111112 0 0.01  0.6666666666666666 0 0.01  0.7222222222222222 0 0.01  0.7777777777777778 0 0.01  0.8333333333333334 0 0.01  0.8888888888888888 0 0.01  0.9444444444444444 0 0.01  1 0 0.01  0 0.01428571428571429 0.01  0.05555555555555555 0.01428571428571429 0.01  0.1111111111111111 0.01428571428571429 0.01  0.1666666666666667 0.01428571428571429 0.01  0.2222222222222222 0.01428571428571429 0.01  0.2777777777777778 0.01428571428571429 0.01  0.3333333333333333 0.01428571428571429 0.01  0.3888888888888889 0.01428571428571429 0.01  0.4444444444444444 0.01428571428571429 0.01  0.5 0.01428571428571429 0.01  0.5555555555555556 0.01428571428571429 0.01  0.6111111111111112 0.01428571428571429 0.01  0.6666666666666666 0.01428571428571429 0.01  0.7222222222222222 0.01428571428571429 0.01  0.7777777777777778 0.01428571428571429 0.01  0.8333333333333334 0.01428571428571429 0.01  0.8888888888888888 0.01428571428571429 0.01  0.9444444444444444 0.01428571428571429 0.01  1 0.01428571428571429 0.01  0 0.02857142857142857 0.01  0.05555555555555555 0.02857142857142857 0.01  0.1111111111111111 0.02857142857142857 0.01  0.1666666666666667 0.02857142857142857 0.01  0.2222222222222222 0.02857142857142857 0.01  0.2777777777777778 0.02857142857142857 0.01  0.3333333333333333 0.02857142857142857 0.01  0.3888888888888889 0.02857142857142857 0.01  0.4444444444444444 0.02857142857142857 0.01  0.5 0.02857142857142857 0.01  0.5555555555555556 0.02857142857142857 0.01  0.6111111111111112 0.02857142857142857 0.01  0.6666666666666666 0.02857142857142857 0.01  0.7222222222222222 0.02857142857142857 0.01  0.7777777777777778 0.02857142857142857 0.01  0.8333333333333334 0.02857142857142857 0.01  0.8888888888888888 0.02857142857142857 0.01  0.9444444444444444 0.02857142857142857 0.01  1 0.02857142857142857 0.01  0 0.04285714285714286 0.01  0.05555555555555555 0.04285714285714286 0.01  0.1111111111111111 0.04285714285714286 0.01  0.1666666666666667 0.04285714285714286 0.01  0.2222222222222222 0.04285714285714286 0.01  0.2777777777777778 0.04285714285714286 0.01  0.3333333333333333 0.04285714285714286 0.01  0.3888888888888889 0.04285714285714286 0.01  0.4444444444444444 0.04285714285714286 0.01  0.5 0.04285714285714286 0.01  0.5555555555555556 0.04285714285714286 0.01  0.6111111111111112 0.04285714285714286 0.01  0.6666666666666666 0.04285714285714286 0.01  0.7222222222222222 0.04285714285714286 0.01  0.7777777777777778 0.04285714285714286 0.01  0.8333333333333334 0.04285714285714286 0.01  0.8888888888888888 0.04285714285714286 0.01  0.9444444444444444 0.04285714285714286 0.01  1 0.04285714285714286 0.01  0 0.05714285714285715 0.01  0.05555555555555555 0.05714285714285715 0.01  0.1111111111111111 0.05714285714285715 0.01  0.1666666666666667 0.05714285714285715 0.01  0.2222222222222222 0.05714285714285715 0.01  0.2777777777777778 0.05714285714285715 0.01  0.3333333333333333 0.05714285714285715 0.01  0.3888888888888889 0.05714285714285715 0.01  0.4444444444444444 0.05714285714285715 0.01  0.5 0.05714285714285715 0.01  0.5555555555555556 0.05714285714285715 0.01  0.6111111111111112 0.05714285714285715 0.01  0.6666666666666666 0.05714285714285715 0.01  0.7222222222222222 0.05714285714285715 0.01  0.7777777777777778 0.05714285714285715 0.01  0.8333333333333334 0.05714285714285715 0.01  0.8888888888888888 0.05714285714285715 0.01  0.9444444444444444 0.05714285714285715 0.01  1 0.05714285714285715 0.01  0 0.07142857142857142 0.01  0.05555555555555555 0.07142857142857142 0.01  0.1111111111111111 0.07142857142857142 0.01  0.1666666666666667 0.07142857142857142 0.01  0.2222222222222222 0.07142857142857142 0.01  0.2777777777777778 0.07142857142857142 0.01  0.3333333333333333 0.07142857142857142 0.01  0.3888888888888889 0.07142857142857142 0.01  0.4444444444444444 0.07142857142857142 0.01  0.5 0.07142857142857142 0.01  0.5555555555555556 0.07142857142857142 0.01  0.6111111111111112 0.07142857142857142 0.01  0.6666666666666666 0.07142857142857142 0.01  0.7222222222222222 0.07142857142857142 0.01  0.7777777777777778 0.07142857142857142 0.01  0.8333333333333334 0.07142857142857142 0.01  0.8888888888888888 0.07142857142857142 0.01  
[...]
<PointData  Vectors="f_33"> 
<DataArray  type="Float64"  Name="f_33"  NumberOfComponents="3" format="ascii">0.0000000000000000e+00 0.0000000000000000e+00 0.0000000000000000e+00  -1.2018400606816175e-03 -1.0759473469033200e-04 -1.6575169525517911e-03  -2.2478441690394328e-03 -6.9793928649613006e-05 -6.3455402444913102e-03  -3.2043891061425528e-03 -7.5758472796361578e-06 -1.3857425249936344e-02  -4.0719612642990313e-03 6.3430510990889217e-05 -2.3928143888205303e-02  -4.8516435575139370e-03 1.3758560464545842e-04 -3.6306365732030159e-02  -5.5444234118152509e-03 2.1266134057655080e-04 -5.0745718139442189e-02  -6.1518446534264623e-03 2.8756237417365478e-04 -6.7004302115799871e-02  -6.6761196791226950e-03 3.6160959709419829e-04 -8.4845758932836399e-02  -7.1201850034836494e-03 4.3429168305098937e-04 -1.0404092088665153e-01  -7.4877647111400384e-03 5.0518020769596561e-04 -1.2436980600165624e-01  -7.7834366321773317e-03 5.7390472077754168e-04 -1.4562387068476287e-01  -8.0126941430280259e-03 6.4015086120130431e-04 -1.6760847342480717e-01  -8.1820001548815850e-03 7.0366799144364436e-04 -1.9014551510871330e-01  -8.2988318168783753e-03 7.6428146434379942e-04 -2.1307622538951884e-01  -8.3717159481773631e-03 8.2190825600388150e-04 -2.3626406581843035e-01  -8.4102609683267358e-03 8.7657608909247385e-04 -2.5959772279807042e-01  -8.4252068263221749e-03 9.2844077244883915e-04 -2.8299419320516100e-01  -8.4284210130439428e-03 9.7782997248795707e-04 -3.0640225168179397e-01  0.0000000000000000e+00 0.0000000000000000e+00 0.0000000000000000e+00  -1.1331164243240765e-03 -4.7208143735125276e-05 -1.7056024831585005e-03  -2.1892587054676009e-03 -1.6020532524332640e-05 -6.3792278463593683e-03  -3.1529247334938183e-03 4.1215890953700286e-05 -1.3856916888995844e-02  -4.0273848541032779e-03 1.0735535293302144e-04 -2.3889834061302094e-02  -4.8137199561323410e-03 1.7670963334928162e-04 -3.6231158212498470e-02  -5.5129191591426286e-03 2.4706819005772485e-04 -5.0636028109197866e-02  -6.1265086062316215e-03 3.1736975076066351e-04 -6.6863088467184847e-02  -6.6566674974541558e-03 3.8697407498499228e-04 -8.4676181451194169e-02  -7.1062891646716513e-03 4.5541234377526562e-04 -1.0384620332114926e-01  -7.4790486545997757e-03 5.2230234414519627e-04 -1.2415317169805402e-01  -7.7794712295289692e-03 5.8732331918441908e-04 -1.4538850323862818e-01  -8.0129956617196393e-03 6.5021364597906740e-04 -1.6735748474888423e-01  -8.1860294256527449e-03 7.1077791723370902e-04 -1.8988191434985743e-01  -8.3059944774538704e-03 7.6889853284098928e-04 -2.1280288615575019e-01  -8.3813631985750706e-03 8.2455045394106406e-04 -2.3598369012957809e-01  -8.4216877140480002e-03 8.7781896716299405e-04 -2.5931279855271905e-01  -8.4376498549101567e-03 9.2891021187654921e-04 -2.8270693109186279e-01  -8.4412441363165003e-03 9.7806803853041986e-04 -3.0611444241905883e-01  0.0000000000000000e+00 0.0000000000000000e+00 0.0000000000000000e+00  -1.1146258639957857e-03 -1.4133324256696141e-06 -1.7234836155161164e-03  -2.1669319540290372e-03 3.5681219133735910e-05 -6.3786483533964022e-03  -3.1326808860673459e-03 9.1118047903187091e-05 -1.3823421771146425e-02  -4.0102719512718089e-03 1.5336048133975509e-04 -2.3821335600862779e-02  -4.7999418566940354e-03 2.1813074307117227e-04 -3.6128870652173482e-02  -5.5024449099554257e-03 2.8373298263695550e-04 -5.0502404687661852e-02  -6.1192229574737380e-03 3.4930514764751900e-04 -6.6701040643174461e-02  -6.6524143488169204e-03 4.1430313234710477e-04 -8.4488777006471213e-02  -7.1048848261586698e-03 4.7832179781610423e-04 -1.0363653948118710e-01  -7.4802863673402243e-03 5.4103357773246431e-04 -1.2392431230614363e-01  -7.7831229170397956e-03 6.0217127222513391e-04 -1.4514343844774918e-01  -8.0188129706780190e-03 6.6152827062395194e-04 -1.6709909749879967e-01  -8.1937448599676884e-03 7.1896617150771160e-04 -1.8961294774862675e-01  -8.3153228780616841e-03 7.7442601265852575e-04 -2.1252590959755149e-01  -8.3920031183647281e-03 8.2794195034568204e-04 -2.3570106313271313e-01  -8.4333198696602378e-03 8.7965741194331642e-04 -2.5902663075023818e-01  -8.4499277000822867e-03 9.2983447600770205e-04 -2.8241903227739890e-01  -8.4538024645931954e-03 9.7871412697923084e-04 -3.0582622193786224e-01  0.0000000000000000e+00 0.0000000000000000e+00 0.0000000000000000e+00  -1.1049177391856983e-03 3.7263911184269704e-05 -1.7165515266868139e-03  -2.1531719623687877e-03 8.4643069562204977e-05 -6.3429297443369347e-03  -3.1203460666249677e-03 1.4085813543503255e-04 -1.3754474598938495e-02  -4.0004325805056773e-03 2.0014464666034921e-04 -2.3719600965086556e-02  -4.7927254127836097e-03 2.6063668465236954e-04 -3.5996437960117422e-02  -5.4977937849197819e-03 3.2153939416124360e-04 -5.0341985187973892e-02  -6.1170239013652126e-03 3.8234463300530340e-04 -6.6515576338870036e-02  -6.6525274155137754e-03 4.4266332398545916e-04 -8.4281267283440431e-02  -7.1071518907327644e-03 5.0217636046016065e-04 -1.0340995653715905e-01  -7.4845344054883982e-03 5.6061957920227820e-04 -1.2368155178212827e-01  -7.7891656868021644e-03 6.1778303714570481e-04 -1.4488728247454652e-01  -8.0264523406113411e-03 6.7351698861802629e-04 -1.6683218105922398e-01  -8.2027722994016221e-03 7.2774125504159815e-04 -1.8933772494131981e-01  -8.3255212890073534e-03 7.8045653090448466e-04 -2.1224461866692926e-01  -8.4031488375143435e-03 8.3175704669213532e-04 -2.3541569002638488e-01  -8.4451826268581425e-03 8.8184515263088940e-04 -2.5873887104445992e-01  -8.4622599483314097e-03 9.3104248268540367e-04 -2.8213024779844570e-01  -8.4663322281590108e-03 9.7965937293592923e-04 -3.0553734891007267e-01  0.0000000000000000e+00 0.0000000000000000e+00 0.0000000000000000e+00  -1.0935051984936810e-03 7.3940473051954596e-05 -1.6868370858226197e-03  -2.1402248995627824e-03 1.3228431736727128e-04 -6.2737945684619989e-03  -3.1098044623328472e-03 1.9033785469379223e-04 -1.3650282486304661e-02  -3.9926705033861013e-03 2.4721275796756238e-04 -2.3584267920024798e-02  -4.7875828046518576e-03 3.0363776406253692e-04 -3.5833296106253229e-02  -5.4951032259017958e-03 3.5990077021393047e-04 -5.0154160371148601e-02  -6.1166306429620071e-03 4.1593551803359815e-04 -6.6306104707046065e-02  -6.6542749705264751e-03 4.7154558081841151e-04 -8.4053104202819362e-02  -7.1108753984368027e-03 5.2651309333456733e-04 -1.0316595777874486e-01  -7.4900584853871358e-03 5.8064335307854095e-04 -1.2342444700776339e-01  -7.7963041646350907e-03 6.3378616502119669e-04 -1.4461964529056565e-01  -8.0350089379639493e-03 6.8584980305138492e-04 -1.6655639663919744e-01  -8.2125419908791082e-03 7.3681301104959939e-04 -1.8905595565765271e-01  -8.3362922302197707e-03 7.8673677079709652e-04 -2.1195876814322478e-01  -8.4147049769308473e-03 8.3577618239834251e-04 -2.3512736624718325e-01  -8.4573061060820819e-03 8.8419354478043682e-04 -2.5844934952292831e-01  -8.4747239788041575e-03 9.3237363611024533e-04 -2.8184043210974802e-01  -8.4789078470877688e-03 9.8074924441938940e-04 -3.0524770391384815e-01  0.0000000000000000e+00 0.0000000000000000e+00 0.0000000000000000e+00  -1.0763624097221952e-03 1.1292280773083221e-04 -1.6333289931748294e-03  -2.1242139002548626e-03 1.8091414604876622e-04 -6.1710712995832985e-03  -3.0976620828492797e-03 2.4039634189490354e-04 -1.3510756654798091e-02  -3.9839417927537641e-03 2.9477409368036065e-04 -2.3415133161449723e-02  -4.7817968465278249e-03 3.4711088355375970e-04 -3.5639174748237648e-02  -5.4919784160105956e-03 3.9870960571470877e-04 -4.9938644687534263e-02  -6.1159635717285936e-03 4.4993944195162542e-04 -6.6072351857829309e-02  -6.6558826585861597e-03 5.0080008997258996e-04 -8.3804037240311546e-02  -7.1145736276559514e-03 5.5117771520964295e-04 -1.0290432066814427e-01  -7.4956539353429278e-03 6.0094858245842450e-04 -1.2315280498707158e-01  -7.8035918635889177e-03 6.5002308339021737e-04 -1.4434036363165806e-01  -8.0437720509695804e-03 6.9836810103282077e-04 -1.6627161019401823e-01  -8.2225528427918287e-03 7.4602185493168971e-04 -1.8876753408245062e-01  -8.3473141584991216e-03 7.9310629619336369e-04 -2.1166827896671137e-01  -8.4264952398088420e-03 8.3983852480736887e-04 -2.3483603719113263e-01  -8.4696211154243750e-03 8.8654248604010794e-04 -2.5815803186339903e-01  -8.4873179775026928e-03 9.3366998890837243e-04 -2.8154956433179801e-01  -8.4915521452343223e-03 9.8181449995830882e-04 -3.0495727952420948e-01  0.0000000000000000e+00 0.0000000000000000e+00 0.0000000000000000e+00  -1.0479130930465277e-03 1.5789106424903395e-04 -1.5511448568156271e-03  -2.0988006877799424e-03 2.3271347065502624e-04 -6.0321270796161149e-03  -3.0775663219465349e-03 2.9207680710061865e-04 -1.3334595571802535e-02  -3.9681905796054278e-03 3.4328195461354476e-04 -2.3211352067147736e-02  -4.7697973720995882e-03 3.9124891243673063e-04 -3.5413426341461524e-02  -5.4834082863414952e-03 4.3804446475926082e-04 -4.9694910573848020e-02  -6.1105916651691683e-03 4.8437979926380602e-04 -6.5813885171265074e-02  -6.6534979062055719e-03 5.3041815057528114e-04 -8.3533718691106457e-02  -7.1149592888723580e-03 5.7613841722243674e-04 -1.0262477666571866e-01  -7.4985777594933521e-03 6.2148402745648083e-04 -1.2286643144951166e-01  -7.8088023645684996e-03 6.6642491835456989e-04 -1.4404931225967732e-01  -8.0509975403283522e-03 7.1098662401262969e-04 -1.6597775947910759e-01  -8.2315019402580993e-03 7.5526736336338821e-04 -1.8847245390910417e-01  -8.3576772892297695e-03 7.9945090872751234e-04 -2.1137319253300757e-01  -8.4379471712159020e-03 8.4381781596271955e-04 -2.3454178211303833e-01  -8.4818278772033767e-03 8.8875601399173918e-04 -2.5786502238780545e-01  -8.4999449444571728e-03 9.3478460190489076e-04 -2.8125775710180922e-01  -8.5042594371210617e-03 9.8269039882848265e-04 -3.0466618163126713e-01  0.0000000000000000e+00 0.0000000000000000e+00 0.0000000000000000e+00  -9.8516688428416563e-04 2.0584923509970712e-04 -1.4380154580591617e-03  -2.0384362709654053e-03 2.8479365713520095e-04 -5.8574081436433027e-03  -3.0244418029011107e-03 3.4254268553857755e-04 -1.3123667668329600e-02  -3.9218534690152506e-03 3.9001276524230720e-04 -2.2975199676838469e-02  -4.7300491386159139e-03 4.3352856630050370e-04 -3.5158367001174161e-02  -5.4500770630499327e-03 4.7563401092949560e-04 -4.9425171504373408e-02  -6.0834657554286985e-03 5.1725775268302064e-04 -6.5532760748916549e-02  -6.6323186307347707e-03 5.5867581884181869e-04 -8.3244026805836036e-02  -7.0994201351563795e-03 5.9993889017814013e-04 -1.0232901916522202e-01  -7.4883224270654606e-03 6.4104802713771522e-04 -1.2256683364096328e-01  -7.8034225124408198e-03 6.8202747654384180e-04 -1.4374781388477628e-01  -8.0500310527336898e-03 7.2295777275122508e-04 -1.6567598623848206e-01  -8.2344320267195605e-03 7.6399405709153380e-04 -1.8817168118651778e-01  -8.3639325228921473e-03 8.0537910367360806e-04 -2.1107430613577963e-01  -8.4469026685139378e-03 8.4745449064231311e-04 -2.3424523812597345e-01  -8.4928080355588884e-03 8.9067234537186957e-04 -2.5757080718429409e-01  -8.5122532885643365e-03 9.3560510561024109e-04 -2.8096533342306851e-01  -8.5170375060503491e-03 9.8327675568379912e-04 -3.0437455852550138e-01  0.0000000000000000e+00 0.0000000000000000e+00 0.0000000000000000e+00  -5.8109138274573056e-04 -6.4599618923840736e-05 -1.6064098660686661e-03  -1.1063801696466144e-03 -3.7485494074628409e-05 -6.2982057573656765e-03  -1.5848118725415277e-03 -6.9582177299498670e-07 -1.3813891611897272e-02  -2.0191229421621646e-03 4.2834371201092844e-05 -2.3888582322290505e-02  -2.4098466173430740e-03 9.0352703290190765e-05 -3.6270814392115117e-02  -2.7573627692003941e-03 1.4056663468590516e-04 -5.0714156198473838e-02  -3.0623767755674049e-03 1.9272227045793766e-04 -6.6976664880672832e-02  -3.3259547752398839e-03 2.4627075078120141e-04 -8.4821944845223748e-02  -3.5495333591581460e-03 3.0074597303826313e-04 -1.0402079264898431e-01  -3.7349429434100937e-03 3.5572400169435795e-04 -1.2435318892269850e-01  -3.8844373847305149e-03 4.1081323594052775e-04 -1.4561055012299898e-01  -4.0007233537363660e-03 4.6565676258660888e-04 -1.6759819214963254e-01  -4.0869865541060275e-03 5.1994016499406473e-04 -1.9013797090219942e-01  -4.1469136307410058e-03 5.7340236407817037e-04 -2.1307106899376099e-01  -4.1847097624380701e-03 6.2584874197323885e-04 -2.3626089919385077e-01  -4.2051145872591435e-03 6.7716529966519281e-04 -2.5959609705564940e-01  -4.2134250006922317e-03 7.2732164438760346e-04 -2.8299360332035101e-01  -4.2154428200426629e-03 7.7638022970617185e-04 -3.0640199155299075e-01  0.0000000000000000e+00 0.0000000000000000e+00 0.0000000000000000e+00  -5.5477162444870251e-04 -2.5356704137293556e-05 -1.6499980340710990e-03  -1.0910315811187385e-03 -5.3279142880642208e-06 -6.3320017802148010e-03  -1.5728865191418744e-03 2.8598149727481342e-05 -1.3813880605801014e-02  -2.0103196538707705e-03 6.9291669750104996e-05 -2.3850840195754668e-02  -2.4038972703405740e-03 1.1398528160717451e-04 -3.6196140709282329e-02  -2.7540670909300680e-03 1.6140752483894004e-04 -5.0604934519107990e-02  -3.0615589412090497e-03 2.1083164510709231e-04 -6.6835845197584773e-02  -3.3274408175522985e-03 2.6173449760726319e-04 -8.4652686630144552e-02  -3.5531409788856099e-03 3.1367592065098689e-04 -1.0382632312875871e-01  -3.7404776276043217e-03 3.6625933792120883e-04 -1.2413673697625731e-01  -3.8916913760426320e-03 4.1912228703039741e-04 -1.4537530630472692e-01  -4.0094760437973734e-03 4.7193871306479746e-04 -1.6734727653436912e-01  -4.0970057796748376e-03 5.2442654044033467e-04 -1.8987440192975125e-01  -4.1579576593050544e-03 5.7635819116728980e-04 -2.1279773069055907e-01  -4.1965294751237624e-03 6.2757338012235566e-04 -2.3598050522968766e-01  -4.2174538971688925e-03 6.7799306207406485e-04 -2.5931114872534483e-01  -4.2260221373598000e-03 7.2762116337893518e-04 -2.8270632592313893e-01  -4.2281604317683059e-03 7.7648846506172327e-04 -3.0611424088955930e-01  0.0000000000000000e+00 0.0000000000000000e+00 0.0000000000000000e+00  -5.4474386140136906e-04 7.1602691980177230e-07 -1.6670357504030111e-03  -1.0803532173203226e-03 2.2704344727138763e-05 -6.3301188809224921e-03  -1.5645626868599776e-03 5.5387231278814253e-05 -1.3780061947272970e-02  -2.0043823007377054e-03 9.3883821538839679e-05 -2.3782338067838353e-02  -2.4002976198140230e-03 1.3609664851162224e-04 -3.6093953163168817e-02  -2.7526959437586189e-03 1.8097134750597044e-04 -5.0471438510465615e-02  -3.0622860033783545e-03 2.2787013410505182e-04 -6.6673925920366681e-02  -3.3301236566186205e-03 2.7631521360843510e-04 -8.4465403010181073e-02  -3.5576264546786783e-03 3.2589822881318186e-04 -1.0361676982386836e-01  -3.7466025312356305e-03 3.7625088388038545e-04 -1.2390797763304166e-01  -3.8992832472351702e-03 4.2703887275821279e-04 -1.4513033182154397e-01  -4.0183543461709288e-03 4.7796523781846241e-04 -1.6708897100122705e-01  -4.1069835119937979e-03 5.2877813091408300e-04 -1.8960550979721169e-01  -4.1688433861827778e-03 5.7928112155495389e-04 -2.1252082278942949e-01  -4.2081293032526206e-03 6.2934550960355034e-04 -2.3569794257385401e-01  -4.2295712556330699e-03 6.7892406147331669e-04 -2.5902504269564242e-01  -4.2384542187690697e-03 7.2805495964604287e-04 -2.8241848886416310e-01  -4.2407423244604954e-03 7.7677730822311270e-04 -3.0582609996616006e-01  0.0000000000000000e+00 0.0000000000000000e+00 0.0000000000000000e+00  -5.3984908939623674e-04 2.1757679106571601e-05 -1.6596927485475592e-03  -1.0737716602294916e-03 4.8036815404733411e-05 -6.2936252046294026e-03  -1.5596850825534830e-03 8.0838336850116378e-05 -1.3710727830033839e-02  -2.0015505269820886e-03 1.1776903775948453e-04 -2.3680459175327767e-02  -2.3994738828170417e-03 1.5777141596812953e-04 -3.5961478361287540e-02  -2.7537703898206298e-03 2.0023586353242262e-04 -5.0311016013987762e-02  -3.0651338313897000e-03 2.4469690095738419e-04 -6.6488472700331189e-02  -3.3346120041414969e-03 2.9075173820055728e-04 -8.4257909222451591e-02  -3.5636152219543746e-03 3.3803407436084829e-04 -1.0339020453324844e-01  -3.7539449952147309e-03 3.8620722206454808e-04 -1.2366523564505956e-01  -3.9078270357060935e-03 4.3496580280315885e-04 -1.4487419528303497e-01  -4.0279427967472702e-03 4.8404175978854051e-04 -1.6682207520654446e-01  -4.1174574395170900e-03 5.3321290055483711e-04 -1.8933030923088520e-01  -4.1800432411127032e-03 5.8231318849472601e-04 -2.1223955606032252e-01  -4.2198974863072621e-03 6.3124449762873920e-04 -2.3541259594113692e-01  -4.2417529060730496e-03 6.7999001256850591e-04 -2.5873731226473373e-01  -4.2508919835739381e-03 7.2862321725760348e-04 -2.8212973848077405e-01  -4.2532913743271285e-03 7.7723383304752626e-04 -3.0553727746976928e-01  0.0000000000000000e+00 0.0000000000000000e+00 0.0000000000000000e+00  -5.3464078270826763e-04 4.1411827985124935e-05 -1.6303783183194878e-03  -1.0680258015955074e-03 7.2254827599376985e-05 -6.2242972004448865e-03  -1.5558508943531320e-03 1.0580059425226488e-04 -1.3606306893703218e-02  -1.9998332856272227e-03 1.4148900425889382e-04 -2.3544999882063666e-02  -2.3997254172175887e-03 1.7942777811912712e-04 -3.5798273020998875e-02  -2.7558421480336440e-03 2.1954543481349386e-04 -5.0123155373407217e-02  -3.0688874114018212e-03 2.6159763070363669e-04 -6.6278976554181468e-02  -3.3399097336621539e-03 3.0527675524557435e-04 -8.4029726438519900e-02  -3.5703158061376715e-03 3.5026638649169288e-04 -1.0314618858490859e-01  -3.7619023747734030e-03 3.9626434431388942e-04 -1.2340811556121696e-01  -3.9168907288331849e-03 4.4299518665969845e-04 -1.4460654466686240e-01  -4.0379590598165864e-03 4.9022005721009471e-04 -1.6654627944435108e-01  -4.1282710036070515e-03 5.3774646726820186e-04 -1.8904853095727117e-01  -4.1914995292335168e-03 5.8543875562176001e-04 -2.1195369914380391e-01  -4.2318453833649428e-03 6.3322932060969072e-04 -2.3512426855365173e-01  -4.2540475021850396e-03 6.8113144818500904e-04 -2.5844779026041909e-01  -4.2633905807623034e-03 7.2925526696178129e-04 -2.8183992766023680e-01  -4.2658574415362534e-03 7.7777409724249537e-04 -3.0524764982808250e-01  0.0000000000000000e+00 0.0000000000000000e+00 0.0000000000000000e+00  -5.2673138011026868e-04 6.2399063473534747e-05 -1.5784719595307842e-03  -1.0607782805718460e-03 9.6932554835013219e-05 -6.1221550291037877e-03  -1.5511079589527069e-03 1.3107087693913299e-04 -1.3467005284051274e-02  -1.9974682862505208e-03 1.6549423321374635e-04 -2.3376016676378831e-02  -2.3994719590076366e-03 2.0136811539993318e-04 -3.5604280075732110e-02  -2.7575146330245763e-03 2.3912961831624798e-04 -4.9907749159271979e-02  -3.0723322498296558e-03 2.7875542006282361e-04 -6.6045313205954331e-02  -3.3449797878097823e-03 3.2003657402259871e-04 -8.3780728765352031e-02  -3.5768617121636698e-03 3.6270865896702927e-04 -1.0288460129887331e-01  -3.7697698619290438e-03 4.0650504015308532e-04 -1.2313650529691174e-01  -3.9259203036014819e-03 4.5118075002008578e-04 -1.4432727852574462e-01  -4.0479868785746262e-03 4.9652649159198582e-04 -1.6626149443816968e-01  -4.1391304905059028e-03 5.4237980794125888e-04 -1.8876009918994183e-01  -4.2030235701418376e-03 5.8863581106580729e-04 -2.1166319087119317e-01  -4.2438693638157023e-03 6.3525802944839292e-04 -2.3483291446057047e-01  -4.2664143375946316e-03 6.8229029518222242e-04 -2.5815644473765692e-01  -4.2759501481729155e-03 7.2987995329184055e-04 -2.8154903450373775e-01  -4.2784573967162235e-03 7.7830757404427858e-04 -3.0495720733747173e-01  0.0000000000000000e+00 0.0000000000000000e+00 0.0000000000000000e+00  -5.1421867232245909e-04 8.7945605548719294e-05 -1.4996087900803158e-03  -1.0495027571768855e-03 1.2420201777947468e-04 -5.9848955694808380e-03  -1.5428421747116846e-03 1.5805478232799273e-04 -1.3291882229585716e-02  -1.9919020862474148e-03 1.9079020976099469e-04 -2.3173000597926607e-02  -2.3963313795784800e-03 2.2437709159865268e-04 -3.5379140239087101e-02  -2.7566242827590224e-03 2.5963367329535003e-04 -4.9664511114240757e-02  -3.0735394975903996e-03 2.9670976543076107e-04 -6.5787248292655462e-02  -3.3481311623545151e-03 3.3547945059080210e-04 -8.3510727244014274e-02  -3.5817967626963448e-03 3.7572558529711496e-04 -1.0260529664409428e-01  -3.7763193990217065e-03 4.1721606237638