<?xml version="1.0"?>
<VTKFile type="UnstructuredGrid"  version="0.1"  >
<UnstructuredGrid>
<Piece  NumberOfPoints="760" NumberOfCells="3024">
<Points>
<DataArray  type="Float64"  NumberOfComponents="3"  format="ascii">0 0 0  0.05555555555555555 0 0  0.1111111111111111 0 0  0.1666666666666667 0 0  0.2222222222222222 0 0  0.2777777777777778 0 0  0.3333333333333333 0 0  0.3888888888888889 0 0  0.4444444444444444 0 0  0.5 0 0  0.5555555555555556 0 0  0.6111111111111112 0 0  0.6666666666666666 0 0  0.7222222222222222 0 0  0.7777777777777778 0 0  0.8333333333333334 0 0  0.8888888888888888 0 0  0.9444444444444444 0 0  1 0 0  0 0.01428571428571429 0  0.05555555555555555 0.01428571428571429 0  0.1111111111111111 0.01428571428571429 0  0.1666666666666667 0.01428571428571429 0  0.2222222222222222 0.01428571428571429 0  0.2777777777777778 0.01428571428571429 0  0.3333333333333333 0.01428571428571429 0  0.3888888888888889 0.01428571428571429 0  0.4444444444444444 0.01428571428571429 0  0.5 0.01428571428571429 0  0.5555555555555556 0.01428571428571429 0  0.6111111111111112 0.01428571428571429 0  0.6666666666666666 0.01428571428571429 0  0.7222222222222222 0.01428571428571429 0  0.7777777777777778 0.01428571428571429 0  0.8333333333333334 0.01428571428571429 0  0.8888888888888888 0.01428571428571429 0  0.9444444444444444 0.01428571428571429 0  1 0.01428571428571429 0  0 0.02857142857142857 0  0.05555555555555555 0.02857142857142857 0  0.1111111111111111 0.02857142857142857 0  0.1666666666666667 0.02857142857142857 0  0.2222222222222222 0.02857142857142857 0  0.2777777777777778 0.02857142857142857 0  0.3333333333333333 0.02857142857142857 0  0.3888888888888889 0.02857142857142857 0  0.4444444444444444 0.02857142857142857 0  0.5 0.02857142857142857 0  0.5555555555555556 0.02857142857142857 0  0.6111111111111112 0.02857142857142857 0  0.6666666666666666 0.02857142857142857 0  0.7222222222222222 0.02857142857142857 0  0.7777777777777778 0.02857142857142857 0  0.8333333333333334 0.02857142857142857 0  0.8888888888888888 0.02857142857142857 0  0.9444444444444444 0.02857142857142857 0  1 0.02857142857142857 0  0 0.04285714285714286 0  0.05555555555555555 0.04285714285714286 0  0.1111111111111111 0.04285714285714286 0  0.1666666666666667 0.04285714285714286 0  0.2222222222222222 0.04285714285714286 0  0.2777777777777778 0.04285714285714286 0  0.3333333333333333 0.04285714285714286 0  0.3888888888888889 0.04285714285714286 0  0.4444444444444444 0.04285714285714286 0  0.5 0.04285714285714286 0  0.5555555555555556 0.04285714285714286 0  0.6111111111111112 0.04285714285714286 0  0.6666666666666666 0.04285714285714286 0  0.7222222222222222 0.04285714285714286 0  0.7777777777777778 0.04285714285714286 0  0.8333333333333334 0.04285714285714286 0  0.8888888888888888 0.04285714285714286 0  0.9444444444444444 0.04285714285714286 0  1 0.04285714285714286 0  0 0.05714285714285715 0  0.05555555555555555 0.05714285714285715 0  0.1111111111111111 0.05714285714285715 0  0.1666666666666667 0.05714285714285715 0  0.2222222222222222 0.05714285714285715 0  0.2777777777777778 0.05714285714285715 0  0.3333333333333333 0.05714285714285715 0  0.3888888888888889 0.05714285714285715 0  0.4444444444444444 0.05714285714285715 0  0.5 0.05714285714285715 0  0.5555555555555556 0.05714285714285715 0  0.6111111111111112 0.05714285714285715 0  0.6666666666666666 0.05714285714285715 0  0.7222222222222222 0.05714285714285715 0  0.7777777777777778 0.05714285714285715 0  0.8333333333333334 0.05714285714285715 0  0.8888888888888888 0.05714285714285715 0  0.9444444444444444 0.05714285714285715 0  1 0.05714285714285715 0  0 0.07142857142857142 0  0.05555555555555555 0.07142857142857142 0  0.1111111111111111 0.07142857142857142 0  0.1666666666666667 0.07142857142857142 0  0.2222222222222222 0.07142857142857142 0  0.2777777777777778 0.07142857142857142 0  0.3333333333333333 0.07142857142857142 0  0.3888888888888889 0.07142857142857142 0  0.4444444444444444 0.07142857142857142 0  0.5 0.07142857142857142 0  0.5555555555555556 0.07142857142857142 0  0.6111111111111112 0.07142857142857142 0  0.6666666666666666 0.07142857142857142 0  0.7222222222222222 0.07142857142857142 0  0.7777777777777778 0.07142857142857142 0  0.8333333333333334 0.07142857142857142 0  0.8888888888888888 0.07142857142857142 0  0.9444444444444444 0.07142857142857142 0  1 0.07142857142857142 0  0 0.08571428571428573 0  0.05555555555555555 0.08571428571428573 0  0.1111111111111111 0.08571428571428573 0  0.1666666666666667 0.08571428571428573 0  0.2222222222222222 0.08571428571428573 0  0.2777777777777778 0.08571428571428573 0  0.3333333333333333 0.08571428571428573 0  0.3888888888888889 0.08571428571428573 0  0.4444444444444444 0.08571428571428573 0  0.5 0.08571428571428573 0  0.5555555555555556 0.08571428571428573 0  0.6111111111111112 0.08571428571428573 0  0.6666666666666666 0.08571428571428573 0  0.7222222222222222 0.08571428571428573 0  0.7777777777777778 0.08571428571428573 0  0.8333333333333334 0.08571428571428573 0  0.8888888888888888 0.08571428571428573 0  0.9444444444444444 0.08571428571428573 0  1 0.08571428571428573 0  0 0.1 0  0.05555555555555555 0.1 0  0.1111111111111111 0.1 0  0.1666666666666667 0.1 0  0.2222222222222222 0.1 0  0.2777777777777778 0.1 0  0.3333333333333333 0.1 0  0.3888888888888889 0.1 0  0.4444444444444444 0.1 0  0.5 0.1 0  0.5555555555555556 0.1 0  0.6111111111111112 0.1 0  0.6666666666666666 0.1 0  0.7222222222222222 0.1 0  0.7777777777777778 0.1 0  0.8333333333333334 0.1 0  0.8888888888888888 0.1 0  0.9444444444444444 0.1 0  1 0.1 0  0 0 0.01  0.05555555555555555 0 0.01  0.1111111111111111 0 0.01  0.1666666666666667 0 0.01  0.2222222222222222 0 0.01  0.2777777777777778 0 0.01  0.3333333333333333 0 0.01  0.3888888888888889 0 0.01  0.4444444444444444 0 0.01  0.5 0 0.01  0.5555555555555556 0 0.01  0.6111111111111112 0 0.01  0.6666666666666666 0 0.01  0.7222222222222222 0 0.01  0.7777777777777778 0 0.01  0.8333333333333334 0 0.01  0.8888888888888888 0 0.01  0.9444444444444444 0 0.01  1 0 0.01  0 0.01428571428571429 0.01  0.05555555555555555 0.01428571428571429 0.01  0.1111111111111111 0.01428571428571429 0.01  0.1666666666666667 0.01428571428571429 0.01  0.2222222222222222 0.01428571428571429 0.01  0.2777777777777778 0.01428571428571429 0.01  0.3333333333333333 0.01428571428571429 0.01  0.3888888888888889 0.01428571428571429 0.01  0.4444444444444444 0.01428571428571429 0.01  0.5 0.01428571428571429 0.01  0.5555555555555556 0.01428571428571429 0.01  0.6111111111111112 0.01428571428571429 0.01  0.6666666666666666 0.01428571428571429 0.01  0.7222222222222222 0.01428571428571429 0.01  0.7777777777777778 0.01428571428571429 0.01  0.8333333333333334 0.01428571428571429 0.01  0.8888888888888888 0.01428571428571429 0.01  0.9444444444444444 0.01428571428571429 0.01  1 0.01428571428571429 0.01  0 0.02857142857142857 0.01  0.05555555555555555 0.02857142857142857 0.01  0.1111111111111111 0.02857142857142857 0.01  0.1666666666666667 0.02857142857142857 0.01  0.2222222222222222 0.02857142857142857 0.01  0.2777777777777778 0.02857142857142857 0.01  0.3333333333333333 0.02857142857142857 0.01  0.3888888888888889 0.02857142857142857 0.01  0.4444444444444444 0.02857142857142857 0.01  0.5 0.02857142857142857 0.01  0.5555555555555556 0.02857142857142857 0.01  0.6111111111111112 0.02857142857142857 0.01  0.6666666666666666 0.02857142857142857 0.01  0.7222222222222222 0.02857142857142857 0.01  0.7777777777777778 0.02857142857142857 0.01  0.8333333333333334 0.02857142857142857 0.01  0.8888888888888888 0.02857142857142857 0.01  0.9444444444444444 0.02857142857142857 0.01  1 0.02857142857142857 0.01  0 0.04285714285714286 0.01  0.05555555555555555 0.04285714285714286 0.01  0.1111111111111111 0.04285714285714286 0.01  0.1666666666666667 0.04285714285714286 0.01  0.2222222222222222 0.04285714285714286 0.01  0.2777777777777778 0.04285714285714286 0.01  0.3333333333333333 0.04285714285714286 0.01  0.3888888888888889 0.04285714285714286 0.01  0.4444444444444444 0.04285714285714286 0.01  0.5 0.04285714285714286 0.01  0.5555555555555556 0.04285714285714286 0.01  0.6111111111111112 0.04285714285714286 0.01  0.6666666666666666 0.04285714285714286 0.01  0.7222222222222222 0.04285714285714286 0.01  0.7777777777777778 0.04285714285714286 0.01  0.8333333333333334 0.04285714285714286 0.01  0.8888888888888888 0.04285714285714286 0.01  0.9444444444444444 0.04285714285714286 0.01  1 0.04285714285714286 0.01  0 0.05714285714285715 0.01  0.05555555555555555 0.05714285714285715 0.01  0.1111111111111111 0.05714285714285715 0.01  0.1666666666666667 0.05714285714285715 0.01  0.2222222222222222 0.05714285714285715 0.01  0.2777777777777778 0.05714285714285715 0.01  0.3333333333333333 0.05714285714285715 0.01  0.3888888888888889 0.05714285714285715 0.01  0.4444444444444444 0.05714285714285715 0.01  0.5 0.05714285714285715 0.01  0.5555555555555556 0.05714285714285715 0.01  0.6111111111111112 0.05714285714285715 0.01  0.6666666666666666 0.05714285714285715 0.01  0.7222222222222222 0.05714285714285715 0.01  0.7777777777777778 0.05714285714285715 0.01  0.8333333333333334 0.05714285714285715 0.01  0.8888888888888888 0.05714285714285715 0.01  0.9444444444444444 0.05714285714285715 0.01  1 0.05714285714285715 0.01  0 0.07142857142857142 0.01  0.05555555555555555 0.07142857142857142 0.01  0.1111111111111111 0.07142857142857142 0.01  0.1666666666666667 0.07142857142857142 0.01  0.2222222222222222 0.07142857142857142 0.01  0.2777777777777778 0.07142857142857142 0.01  0.3333333333333333 0.07142857142857142 0.01  0.3888888888888889 0.07142857142857142 0.01  0.4444444444444444 0.07142857142857142 0.01  0.5 0.07142857142857142 0.01  0.5555555555555556 0.07142857142857142 0.01  0.6111111111111112 0.07142857142857142 0.01  0.6666666666666666 0.07142857142857142 0.01  0.7222222222222222 0.07142857142857142 0.01  0.7777777777777778 0.07142857142857142 0.01  0.8333333333333334 0.07142857142857142 0.01  0.8888888888888888 0.07142857142857142 0.01  
[...]
<PointData  Vectors="f_33"> 
<DataArray  type="Float64"  Name="f_33"  NumberOfComponents="3" format="ascii">0.0000000000000000e+00 0.0000000000000000e+00 0.0000000000000000e+00  -2.9323214840913788e-03 -1.4161767959816737e-04 -4.2971207894755437e-03  -5.4707283941976938e-03 2.8725387304137960e-04 -1.6498469245996746e-02  -7.7892008022739691e-03 9.7895505714024685e-04 -3.6053386670023731e-02  -9.8919466436052182e-03 1.8767213192941604e-03 -6.2272117602578378e-02  -1.1782236441914302e-02 2.9479554377157134e-03 -9.4501373593693289e-02  -1.3462446256656539e-02 4.1690277837282243e-03 -1.3210077515130800e-01  -1.4936197130803250e-02 5.5195625694534666e-03 -1.7444140871887470e-01  -1.6208714284036113e-02 6.9806797914208690e-03 -2.2090853385620118e-01  -1.7286972018435591e-02 8.5344803908443609e-03 -2.7090584623466429e-01  -1.8179853809540514e-02 1.0163976005360289e-02 -3.2386065603414815e-01  -1.8898321811420395e-02 1.1853187279984564e-02 -3.7922975756910493e-01  -1.9455577057933864e-02 1.3587311967618981e-02 -4.3650586914648154e-01  -1.9867200673890879e-02 1.5352925785177985e-02 -4.9522455353814121e-01  -2.0151271642456475e-02 1.7138201623715606e-02 -5.5497153815950973e-01  -2.0328460672164327e-02 1.8933142181444425e-02 -6.1539035617319515e-01  -2.0422115918162221e-02 2.0729824068516693e-02 -6.7619023525334276e-01  -2.0458395226383926e-02 2.2522640602565373e-02 -7.3715424154821407e-01  -2.0466166997034314e-02 2.4308713308047774e-02 -7.9814845484869312e-01  0.0000000000000000e+00 0.0000000000000000e+00 0.0000000000000000e+00  -2.8154686888176728e-03 2.3762767830375102e-06 -4.4251080892064552e-03  -5.4307507375085801e-03 4.1484833014838638e-04 -1.6589848209210844e-02  -7.8163860695728889e-03 1.0945498602238186e-03 -3.6055602659068944e-02  -9.9815091207306854e-03 1.9807488034762730e-03 -6.2175712928576571e-02  -1.1929029379507444e-02 3.0405974997750889e-03 -9.4308674137589851e-02  -1.3661341338570847e-02 4.2504829100510674e-03 -1.3181804847762557e-01  -1.5182110300045803e-02 5.5901071432956249e-03 -1.7407633935273242e-01  -1.6496602230779648e-02 7.0406825416843496e-03 -2.2046933277424741e-01  -1.7611842621133914e-02 8.5844115154762694e-03 -2.7040089663455003e-01  -1.8536790615403462e-02 1.0204416421428768e-02 -3.2329834738316265e-01  -1.9282517433520371e-02 1.1884837447926570e-02 -3.7861838426850114e-01  -1.9862372771819618e-02 1.3610999690366447e-02 -4.3585354807498494e-01  -2.0292131014949165e-02 1.5369612642547152e-02 -4.9453914341632621e-01  -2.0590113299823611e-02 1.7148987702610436e-02 -5.5426055414439157e-01  -2.0777283906963494e-02 1.8939268691420427e-02 -6.1466087564164640e-01  -2.0877330632166468e-02 2.0732673632474264e-02 -6.7544878677598097e-01  -2.0916810641207106e-02 2.2523721301353560e-02 -7.3640664220772256e-01  -2.0925632838696234e-02 2.4309270207323860e-02 -7.9739942835412347e-01  0.0000000000000000e+00 0.0000000000000000e+00 0.0000000000000000e+00  -2.8233538842380021e-03 1.1281197229812553e-04 -4.4769579477931965e-03  -5.4812881417040807e-03 5.4063535170173081e-04 -1.6593403591090804e-02  -7.9211986829862968e-03 1.2165146979471169e-03 -3.5973282559737196e-02  -1.0139144461630263e-02 2.0933516862499347e-03 -6.2001911617332053e-02  -1.2135491103329668e-02 3.1420369880183594e-03 -9.4046533353562486e-02  -1.3912030921698208e-02 4.3402944529332870e-03 -1.3147394125908377e-01  -1.5472300325214995e-02 5.6683397093235050e-03 -1.7365783239342542e-01  -1.6821586473735047e-02 7.1076292157216427e-03 -2.1998440397509691e-01  -1.7967006444051973e-02 8.6405246885749160e-03 -2.6985760729511621e-01  -1.8917662205233454e-02 1.0250284200061072e-02 -3.2270468014891163e-01  -1.9684814880156241e-02 1.1921180822476670e-02 -3.7798213910331829e-01  -2.0282051672238358e-02 1.3638676375705011e-02 -4.3518225546655265e-01  -2.0725434204965334e-02 1.5389622354252947e-02 -4.9383997955451236e-01  -2.1033622999499488e-02 1.7162476518114873e-02 -5.5354025245579697e-01  -2.1227974867200277e-02 1.8947530745121292e-02 -6.1392563210125273e-01  -2.1332616355402869e-02 2.0737149904454501e-02 -6.7470415500403169e-01  -2.1374569442106344e-02 2.2525998597821024e-02 -7.3565740167820359e-01  -2.1384301925938983e-02 2.4310881798538450e-02 -7.9664930928629929e-01  0.0000000000000000e+00 0.0000000000000000e+00 0.0000000000000000e+00  -2.8512361055685331e-03 2.0918067065737019e-04 -4.4645847211794709e-03  -5.5522128412432703e-03 6.6335994619840498e-04 -1.6505956092967147e-02  -8.0450399498363055e-03 1.3417713562344376e-03 -3.5799009158099346e-02  -1.0314233859723481e-02 2.2113626865376203e-03 -6.1741887199453144e-02  -1.2357623389135966e-02 3.2493198529151084e-03 -9.3706169728604363e-02  -1.4176542293338569e-02 4.4357407586721378e-03 -1.3106028420660379e-01  -1.5774474238182051e-02 5.7517625183011291e-03 -1.7317853144884610e-01  -1.7156764716105010e-02 7.1792414251321277e-03 -2.1944726351972665e-01  -1.8330647065999021e-02 8.7007594067474419e-03 -2.6927036837635493e-01  -1.9305387482834946e-02 1.0299736187304440e-02 -3.2207489308094195e-01  -2.0092458162964909e-02 1.1960590776015145e-02 -3.7731706785245794e-01  -2.0705705686905673e-02 1.3668930155348364e-02 -4.3448879027120485e-01  -2.1161501670141004e-02 1.5411754748936850e-02 -4.9312454893833479e-01  -2.1478869635271187e-02 1.7177675199925361e-02 -5.5280873171018929e-01  -2.1679584044377791e-02 1.8957137565488748e-02 -6.1318324766394194e-01  -2.1788238067530653e-02 2.0742658514910930e-02 -6.7395538408144740e-01  -2.1832331111137904e-02 2.2529059324258388e-02 -7.3490585445130951e-01  -2.1842822796906185e-02 2.4313298673053253e-02 -7.9589747720478377e-01  0.0000000000000000e+00 0.0000000000000000e+00 0.0000000000000000e+00  -2.8735938322826987e-03 3.0452069542424463e-04 -4.3930201774240877e-03  -5.6245085103095623e-03 7.8675104407640402e-04 -1.6331779987640866e-02  -8.1730629367582318e-03 1.4700497872062804e-03 -3.5533171221912706e-02  -1.0494292932551101e-02 2.3334543066238812e-03 -6.1394554728192871e-02  -1.2584730994372618e-02 3.3608767650060750e-03 -9.3285990792126128e-02  -1.4445752032932904e-02 4.5352654212243637e-03 -1.3057538158431090e-01  -1.6080965203622920e-02 5.8389124861826765e-03 -1.7263680173107609e-01  -1.7495838471960980e-02 7.2541744239345137e-03 -2.1885640035624748e-01  -1.8697746694689162e-02 8.7638956902708828e-03 -2.6863781442193885e-01  -1.9696131644860837e-02 1.0351676556347668e-02 -3.2140777154184919e-01  -2.0502682892402549e-02 1.2002091844027576e-02 -3.7662210473656504e-01  -2.1131511026324486e-02 1.3700900279811218e-02 -4.3377222997906162e-01  -2.1599301922607204e-02 1.5435256752451892e-02 -4.9239206436091365e-01  -2.1925446566059496e-02 1.7193930239914414e-02 -5.5206532993480539e-01  -2.2132142879489686e-02 1.8967526798075549e-02 -6.1243317297685651e-01  -2.2244462512673098e-02 2.0748720026696064e-02 -6.7320202059597989e-01  -2.2290400897376876e-02 2.2532496406548051e-02 -7.3415161755706249e-01  -2.2301447604778615e-02 2.4316135668079625e-02 -7.9514362724816245e-01  0.0000000000000000e+00 0.0000000000000000e+00 0.0000000000000000e+00  -2.8813103417862562e-03 4.0994436890426855e-04 -4.2595909164666445e-03  -5.6891834134870315e-03 9.1683294938548908e-04 -1.6070311407779380e-02  -8.2973717632831394e-03 1.6035503252195861e-03 -3.5175475918909918e-02  -1.0672295728587576e-02 2.4601677325960607e-03 -6.0959330948006867e-02  -1.2810603845633097e-02 3.4766419264660535e-03 -9.2785245549428338e-02  -1.4714251536382450e-02 4.6385833164018925e-03 -1.3001844918562935e-01  -1.6387143944105360e-02 5.9294241007429322e-03 -1.7203189499703522e-01  -1.7834927493077250e-02 7.3320326041236440e-03 -2.1821113225652305e-01  -1.9065136447207066e-02 8.8295259876127671e-03 -2.6795934090410883e-01  -2.0087391555189394e-02 1.0405692199837595e-02 -3.2070279239182720e-01  -2.0913597341486290e-02 1.2045267490984295e-02 -3.7589680809037485e-01  -2.1558123678346384e-02 1.3734167472827741e-02 -4.3303221259843278e-01  -2.2037965131446083e-02 1.5459706680856623e-02 -4.9164224039237442e-01  -2.2372874364049337e-02 1.7210818036292781e-02 -5.5130983381617427e-01  -2.2585467568337604e-02 1.8978274381523132e-02 -6.1167526018088769e-01  -2.2701297608476657e-02 2.0754913844746321e-02 -6.7244397080940699e-01  -2.2748882755159478e-02 2.2535897101574592e-02 -7.3339463593303278e-01  -2.2760301266721638e-02 2.4318951776435834e-02 -7.9438774761806885e-01  0.0000000000000000e+00 0.0000000000000000e+00 0.0000000000000000e+00  -2.8614237686705999e-03 5.3512172594268352e-04 -4.0514948698699947e-03  -5.7310726278493656e-03 1.0593172978027713e-03 -1.5714473852839542e-02  -8.4025802700167154e-03 1.7450409893222843e-03 -3.4722357522099061e-02  -1.0833554507150183e-02 2.5927254031375018e-03 -6.0433862904015374e-02  -1.3021765983139715e-02 3.5971519055084558e-03 -9.2202111359267216e-02  -1.4969965140718036e-02 4.7459268350496147e-03 -1.2938799450525401e-01  -1.6682385426427783e-02 6.0233790998569913e-03 -1.7136258345483693e-01  -1.8164849088662408e-02 7.4128070206058144e-03 -2.1751046939625157e-01  -1.9425037627163209e-02 8.8975742994965301e-03 -2.6723418012748695e-01  -2.0472733807142051e-02 1.0461650051462970e-02 -3.1995939623030556e-01  -2.1320037193323645e-02 1.2089932807012451e-02 -3.7514081186082748e-01  -2.1981555122669583e-02 1.3768498896833341e-02 -4.3226854814894100e-01  -2.2474567748423047e-02 1.5484827724076734e-02 -4.9087504295082918e-01  -2.2819165422403517e-02 1.7228022325771079e-02 -5.5054234166323468e-01  -2.3038357721827760e-02 1.8989030181925388e-02 -6.1090971205151035e-01  -2.3158158690282434e-02 2.0760864881042208e-02 -6.7168150605401100e-01  -2.3207630387527496e-02 2.2538864198697172e-02 -7.3263520537467108e-01  -2.3219430858156646e-02 2.4321299691795615e-02 -7.9363012206641614e-01  0.0000000000000000e+00 0.0000000000000000e+00 0.0000000000000000e+00  -2.7571541140330963e-03 6.7241716674872228e-04 -3.7625145540831659e-03  -5.6861771614913608e-03 1.2068247998380645e-03 -1.5264535752231616e-02  -8.4256914633189465e-03 1.8873064488011773e-03 -3.4177848894924784e-02  -1.0918829040664331e-02 2.7241906125956370e-03 -5.9823331282268251e-02  -1.3164094402814299e-02 3.7159639178028342e-03 -9.1541967215692563e-02  -1.5164383246264439e-02 4.8514811389572098e-03 -1.2868922114276959e-01  -1.6923913853047663e-02 6.1156450684300987e-03 -1.7063375056779273e-01  -1.8448510272088655e-02 7.4920554916233636e-03 -2.1675891778505046e-01  -1.9745892332446786e-02 8.9642718523761690e-03 -2.6646643721093360e-01  -2.0825916394654462e-02 1.0516423394947468e-02 -3.1918127763924437e-01  -2.1700792433585518e-02 1.2133561193710524e-02 -3.7435739691975578e-01  -2.2385278593603068e-02 1.3801916818804270e-02 -4.3148410462163606e-01  -2.2896850257870797e-02 1.5509130664724327e-02 -4.9009293131068427e-01  -2.3255841315406440e-02 1.7244472762707155e-02 -5.4976491146222728e-01  -2.3485557292919946e-02 1.8999063285659527e-02 -6.1013819594575303e-01  -2.3612366813782919e-02 2.0766097490902285e-02 -6.7091591444349463e-01  -2.3665827616716050e-02 2.2541071892649502e-02 -7.3187418672937921e-01  -2.3678911294894300e-02 2.4322883764800705e-02 -7.9287113979161161e-01  0.0000000000000000e+00 0.0000000000000000e+00 0.0000000000000000e+00  -1.3204577348090868e-03 -2.7442644707811787e-05 -4.1732973490664176e-03  -2.5020908178311650e-03 3.7344557500622701e-04 -1.6383895083319999e-02  -3.5752204639606937e-03 9.9891268755031119e-04 -3.5947990725504621e-02  -4.5492725523928424e-03 1.8250546496127791e-03 -6.2176271143836087e-02  -5.4260313272931548e-03 2.8268294089103152e-03 -9.4415171877856030e-02  -6.2063074962749381e-03 3.9830471364619415e-03 -1.3202417865465021e-01  -6.8915788645059423e-03 5.2742214944930281e-03 -1.7437427198836458e-01  -7.4841361867123372e-03 6.6818135380532374e-03 -2.2085062234876068e-01  -7.9871031658525563e-03 8.1880455035797505e-03 -2.7085683937181149e-01  -8.4044883521267391e-03 9.7759454246709818e-03 -3.2382014308603324e-01  -8.7412557355839807e-03 1.1429484391291697e-02 -3.7919723108795639e-01  -9.0033967667094688e-03 1.3133755395811873e-02 -4.3648071809955985e-01  -9.1979956679997376e-03 1.4875174371714147e-02 -4.9520605701084769e-01  -9.3332846164277967e-03 1.6641695431151213e-02 -5.5495885994139749e-01  -9.4186884339969579e-03 1.8423036768195237e-02 -6.1538254021301375e-01  -9.4648660407497566e-03 2.0210911868167206e-02 -6.7618620035650900e-01  -9.4837680829013542e-03 2.1999234067860116e-02 -7.3715276773764482e-01  -9.4884030452510107e-03 2.3784432297604075e-02 -7.9814780399770524e-01  0.0000000000000000e+00 0.0000000000000000e+00 0.0000000000000000e+00  -1.3124772077723282e-03 6.0828429477213207e-05 -4.2881517377382095e-03  -2.5726102272823474e-03 4.4478475957722408e-04 -1.6473704053116951e-02  -3.7035165947107724e-03 1.0637863459256780e-03 -3.5949771919269090e-02  -4.7303566894006509e-03 1.8836312041837927e-03 -6.2079784012064869e-02  -5.6546622474936744e-03 2.8791469186100131e-03 -9.4222477242579067e-02  -6.4774354484047232e-03 4.0291740038331542e-03 -1.3174145929732375e-01  -7.2003066275389523e-03 5.3142870986313418e-03 -1.7400918440044755e-01  -7.8256966006436945e-03 6.7160058029917379e-03 -2.2041137021829757e-01  -8.3568690816578674e-03 8.2166108798961655e-03 -2.7035180688424149e-01  -8.7980024437045775e-03 9.7991920133811972e-03 -3.2325772437836231e-01  -9.1542706432851482e-03 1.1447786172081495e-02 -3.7858572719884970e-01  -9.4319212733406290e-03 1.3147556421054921e-02 -4.3582825387148905e-01  -9.6383450843210549e-03 1.4884992432092044e-02 -4.9452050021506333e-01  -9.7821344277034955e-03 1.6648124952433896e-02 -5.5424773580939612e-01  -9.8731296126852875e-03 1.8426751005241070e-02 -6.1465293741451743e-01  -9.9224572484444620e-03 2.0212665488069593e-02 -6.7544466110045676e-01  -9.9426032137085972e-03 2.1999864172844687e-02 -7.3640512233459343e-01  -9.9476122235800570e-03 2.3784658808537262e-02 -7.9739891938550833e-01  0.0000000000000000e+00 0.0000000000000000e+00 0.0000000000000000e+00  -1.3415270659508872e-03 1.2024432545707901e-04 -4.3347186176416067e-03  -2.6530884037227497e-03 5.0941379941918223e-04 -1.6471157013984581e-02  -3.8390398933800078e-03 1.1259793498804903e-03 -3.5864096983808748e-02  -4.9168204712230065e-03 1.9408434965280370e-03 -6.1903704369451466e-02  -5.8873994393852779e-03 2.9306237815276011e-03 -9.3958570929654012e-02  -6.7516405361766566e-03 4.0747274879719799e-03 -1.3139589687693828e-01  -7.5112107312574538e-03 5.3539567645435699e-03 -1.7358945837629419e-01  -8.1686262917444706e-03 6.7499437621839796e-03 -2.1992542778776419e-01  -8.7272859075755872e-03 8.2450460399363015e-03 -2.6980769296158513e-01  -9.1915441658634179e-03 9.8224206462904223e-03 -3.2266340917413244e-01  -9.5667959900587341e-03 1.1466171413772173e-02 -3.7794899834165296e-01  -9.8595579927609964e-03 1.3161530600332809e-02 -4.3515662810774264e-01  -1.0077541010436699e-02 1.4895059941481523e-02 -4.9382113794649002e-01  -1.0229711139919793e-02 1.6654864615546872e-02 -5.5352735229644257e-01  -1.0326337200164189e-02 1.8430817302493137e-02 -6.1391770790887834e-01  -1.0379024183961269e-02 2.0214790247605020e-02 -6.7470011635632643e-01  -1.0400778941447118e-02 2.2000866857500686e-02 -7.3565601808827241e-01  -1.0406355433286704e-02 2.3785342795927797e-02 -7.9664899888646878e-01  0.0000000000000000e+00 0.0000000000000000e+00 0.0000000000000000e+00  -1.3811333233971670e-03 1.7090850647328394e-04 -4.3181619909999228e-03  -2.7425946054083351e-03 5.7087098108073880e-04 -1.6378947735342465e-02  -3.9822346981779437e-03 1.1882282009482103e-03 -3.5686294875666970e-02  -5.1101180507310169e-03 1.9994351317343942e-03 -6.1641024138983057e-02  -6.1261546460179310e-03 2.9838405734911875e-03 -9.3616061554277125e-02  -7.0310509133223740e-03 4.1220376411785385e-03 -1.3098043588088773e-01  -7.8265283513192299e-03 5.3952791712866205e-03 -1.7310862434982888e-01  -8.5152098641604456e-03 6.7853898252861278e-03 -2.1938699341086823e-01  -9.1006385980538489e-03 8.2748334157315834e-03 -2.6921938136406531e-01  -9.5873547059701289e-03 9.8468460936320876e-03 -3.2203275649434243e-01  -9.9809837631402529e-03 1.1485603865785312e-02 -3.7728325422146824e-01  -1.0288321488527217e-02 1.3176411137916622e-02 -4.3446266675795320e-01  -1.0517409225982381e-02 1.4905903811009346e-02 -4.9310536949608696e-01  -1.0677597494789613e-02 1.6662263216401543e-02 -5.5279563095097473e-01  -1.0779595040165155e-02 1.8435438724108827e-02 -6.1317523616536940e-01  -1.0835498159442901e-02 2.0217379248904700e-02 -6.7395134536924606e-01  -1.0858831868587030e-02 2.2002260116745106e-02 -7.3490453429006330e-01  -1.0864942649482623e-02 2.3786484765028825e-02 -7.9589729241938512e-01  0.0000000000000000e+00 0.0000000000000000e+00 0.0000000000000000e+00  -1.4188323571535722e-03 2.2205233093405713e-04 -4.2445347968622154e-03  -2.8335577476864015e-03 6.3342475978586589e-04 -1.6201488037349075e-02  -4.1277101430225449e-03 1.2528103435704516e-03 -3.5417327978764734e-02  -5.3059201412417392e-03 2.0608544488975263e-03 -6.1291073884560905e-02  -6.3673218354756630e-03 3.0399205033329263e-03 -9.3193672685842707e-02  -7.3126837182700202e-03 4.1720336665241105e-03 -1.3049363612414669e-01  -8.1438470187145204e-03 5.4390290641420274e-03 -1.7256526194104460e-01  -8.8635634875054107e-03 6.8229790505403183e-03 -2.1879473738452934e-01  -9.4755300005010083e-03 8.3064768310500848e-03 -2.6858565859262923e-01  -9.9844771661504739e-03 9.8728482969506291e-03 -3.2136467649013140e-01  -1.0396264476530083e-02 1.1506347580537224e-02 -3.7658752856779454e-01  -1.0717969488269516e-02 1.3192355510199330e-02 -4.3374552351531753e-01  -1.0957966677247266e-02 1.4917585901430734e-02 -4.9237246277902841e-01  -1.1125993698214653e-02 1.6670299905045028e-02 -5.5205194639236999e-01  -1.1233202897658178e-02 1.8440527132330169e-02 -6.1242499375662718e-01  -1.1292190306145275e-02 2.0220295039045516e-02 -6.7319790264684998e-01  -1.1317008288264731e-02 2.2003874436960672e-02 -7.3415028369335822e-01  -1.1323560416516653e-02 2.3787886760477363e-02 -7.9514348207204810e-01  0.0000000000000000e+00 0.0000000000000000e+00 0.0000000000000000e+00  -1.4497172988540310e-03 2.8069541099547742e-04 -4.1121925773259238e-03  -2.9209071538070521e-03 7.0121722518714212e-04 -1.5938756108618442e-02  -4.2712303573839080e-03 1.3218363988922982e-03 -3.5057696673124611e-02  -5.5004564815263474e-03 2.1262903639674923e-03 -6.0853970304764471e-02  -6.6075789503627401e-03 3.0996631168946115e-03 -9.2691230168693725e-02  -7.5936663164985355e-03 4.2253246794893675e-03 -1.2993519632990050e-01  -8.4607355652828019e-03 5.4856936496329124e-03 -1.7195902932685550e-01  -9.2116805207854667e-03 6.8631017348923084e-03 -2.1814831661314277e-01  -9.8503548141094244e-03 8.3402799303716954e-03 -2.6790619779832270e-01  -1.0381678880642521e-02 9.9006497097559234e-03 -3.2065886711870017e-01  -1.0811743877703915e-02 1.1528548082852107e-02 -3.7586154919945830e-01  -1.1147906233527502e-02 1.3209436753274491e-02 -4.3300495976622905e-01  -1.1398870302945041e-02 1.4930111952852839e-02 -4.9162221586529564e-01  -1.1574757544519825e-02 1.6678919424261623e-02 -5.5129613595615179e-01  -1.1687161114898195e-02 1.8445974359624806e-02 -6.1166685847957758e-01  -1.1749180437046926e-02 2.0223387201458685e-02 -6.7243970311693479e-01  -1.1775415922904344e-02 2.2005525777596052e-02 -7.3339320942223318e-01  -1.1782315882605069e-02 2.3789314589312233e-02 -7.9438754871418515e-01  0.0000000000000000e+00 0.0000000000000000e+00 0.0000000000000000e+00  -1.4701588009527991e-03 3.5537602803570084e-04 -3.9097242332484846e-03  -2.9991697065857681e-03 7.7985441568457429e-04 -1.5584624322297428e-02  -4.4069073195133679e-03 1.3990253495310162e-03 -3.4604846383886223e-02  -5.6879472881772699e-03 2.1984086314155351e-03 -6.0328298412697393e-02  -6.8415627594155615e-03 3.1651519585456770e-03 -9.2107719167952518e-02  -7.8691717843379951e-03 4.2836256951767748e-03 -1.2930430252538574e-01  -8.7729406332399743e-03 5.5367067534711836e-03 -1.7128925823396338e-01  -9.5558843217755374e-03 6.9069481284502170e-03 -2.1744719120967040e-01  -1.0222000069044456e-02 8.3772093836159134e-03 -2.6718058047046900e-01  -1.0776387717075751e-02 9.9310081906995532e-03 -