<?xml version="1.0"?>
<VTKFile type="UnstructuredGrid"  version="0.1"  >
<UnstructuredGrid>
<Piece  NumberOfPoints="760" NumberOfCells="3024">
<Points>
<DataArray  type="Float64"  NumberOfComponents="3"  format="ascii">0 0 0  0.05555555555555555 0 0  0.1111111111111111 0 0  0.1666666666666667 0 0  0.2222222222222222 0 0  0.2777777777777778 0 0  0.3333333333333333 0 0  0.3888888888888889 0 0  0.4444444444444444 0 0  0.5 0 0  0.5555555555555556 0 0  0.6111111111111112 0 0  0.6666666666666666 0 0  0.7222222222222222 0 0  0.7777777777777778 0 0  0.8333333333333334 0 0  0.8888888888888888 0 0  0.9444444444444444 0 0  1 0 0  0 0.01428571428571429 0  0.05555555555555555 0.01428571428571429 0  0.1111111111111111 0.01428571428571429 0  0.1666666666666667 0.01428571428571429 0  0.2222222222222222 0.01428571428571429 0  0.2777777777777778 0.01428571428571429 0  0.3333333333333333 0.01428571428571429 0  0.3888888888888889 0.01428571428571429 0  0.4444444444444444 0.01428571428571429 0  0.5 0.01428571428571429 0  0.5555555555555556 0.01428571428571429 0  0.6111111111111112 0.01428571428571429 0  0.6666666666666666 0.01428571428571429 0  0.7222222222222222 0.01428571428571429 0  0.7777777777777778 0.01428571428571429 0  0.8333333333333334 0.01428571428571429 0  0.8888888888888888 0.01428571428571429 0  0.9444444444444444 0.01428571428571429 0  1 0.01428571428571429 0  0 0.02857142857142857 0  0.05555555555555555 0.02857142857142857 0  0.1111111111111111 0.02857142857142857 0  0.1666666666666667 0.02857142857142857 0  0.2222222222222222 0.02857142857142857 0  0.2777777777777778 0.02857142857142857 0  0.3333333333333333 0.02857142857142857 0  0.3888888888888889 0.02857142857142857 0  0.4444444444444444 0.02857142857142857 0  0.5 0.02857142857142857 0  0.5555555555555556 0.02857142857142857 0  0.6111111111111112 0.02857142857142857 0  0.6666666666666666 0.02857142857142857 0  0.7222222222222222 0.02857142857142857 0  0.7777777777777778 0.02857142857142857 0  0.8333333333333334 0.02857142857142857 0  0.8888888888888888 0.02857142857142857 0  0.9444444444444444 0.02857142857142857 0  1 0.02857142857142857 0  0 0.04285714285714286 0  0.05555555555555555 0.04285714285714286 0  0.1111111111111111 0.04285714285714286 0  0.1666666666666667 0.04285714285714286 0  0.2222222222222222 0.04285714285714286 0  0.2777777777777778 0.04285714285714286 0  0.3333333333333333 0.04285714285714286 0  0.3888888888888889 0.04285714285714286 0  0.4444444444444444 0.04285714285714286 0  0.5 0.04285714285714286 0  0.5555555555555556 0.04285714285714286 0  0.6111111111111112 0.04285714285714286 0  0.6666666666666666 0.04285714285714286 0  0.7222222222222222 0.04285714285714286 0  0.7777777777777778 0.04285714285714286 0  0.8333333333333334 0.04285714285714286 0  0.8888888888888888 0.04285714285714286 0  0.9444444444444444 0.04285714285714286 0  1 0.04285714285714286 0  0 0.05714285714285715 0  0.05555555555555555 0.05714285714285715 0  0.1111111111111111 0.05714285714285715 0  0.1666666666666667 0.05714285714285715 0  0.2222222222222222 0.05714285714285715 0  0.2777777777777778 0.05714285714285715 0  0.3333333333333333 0.05714285714285715 0  0.3888888888888889 0.05714285714285715 0  0.4444444444444444 0.05714285714285715 0  0.5 0.05714285714285715 0  0.5555555555555556 0.05714285714285715 0  0.6111111111111112 0.05714285714285715 0  0.6666666666666666 0.05714285714285715 0  0.7222222222222222 0.05714285714285715 0  0.7777777777777778 0.05714285714285715 0  0.8333333333333334 0.05714285714285715 0  0.8888888888888888 0.05714285714285715 0  0.9444444444444444 0.05714285714285715 0  1 0.05714285714285715 0  0 0.07142857142857142 0  0.05555555555555555 0.07142857142857142 0  0.1111111111111111 0.07142857142857142 0  0.1666666666666667 0.07142857142857142 0  0.2222222222222222 0.07142857142857142 0  0.2777777777777778 0.07142857142857142 0  0.3333333333333333 0.07142857142857142 0  0.3888888888888889 0.07142857142857142 0  0.4444444444444444 0.07142857142857142 0  0.5 0.07142857142857142 0  0.5555555555555556 0.07142857142857142 0  0.6111111111111112 0.07142857142857142 0  0.6666666666666666 0.07142857142857142 0  0.7222222222222222 0.07142857142857142 0  0.7777777777777778 0.07142857142857142 0  0.8333333333333334 0.07142857142857142 0  0.8888888888888888 0.07142857142857142 0  0.9444444444444444 0.07142857142857142 0  1 0.07142857142857142 0  0 0.08571428571428573 0  0.05555555555555555 0.08571428571428573 0  0.1111111111111111 0.08571428571428573 0  0.1666666666666667 0.08571428571428573 0  0.2222222222222222 0.08571428571428573 0  0.2777777777777778 0.08571428571428573 0  0.3333333333333333 0.08571428571428573 0  0.3888888888888889 0.08571428571428573 0  0.4444444444444444 0.08571428571428573 0  0.5 0.08571428571428573 0  0.5555555555555556 0.08571428571428573 0  0.6111111111111112 0.08571428571428573 0  0.6666666666666666 0.08571428571428573 0  0.7222222222222222 0.08571428571428573 0  0.7777777777777778 0.08571428571428573 0  0.8333333333333334 0.08571428571428573 0  0.8888888888888888 0.08571428571428573 0  0.9444444444444444 0.08571428571428573 0  1 0.08571428571428573 0  0 0.1 0  0.05555555555555555 0.1 0  0.1111111111111111 0.1 0  0.1666666666666667 0.1 0  0.2222222222222222 0.1 0  0.2777777777777778 0.1 0  0.3333333333333333 0.1 0  0.3888888888888889 0.1 0  0.4444444444444444 0.1 0  0.5 0.1 0  0.5555555555555556 0.1 0  0.6111111111111112 0.1 0  0.6666666666666666 0.1 0  0.7222222222222222 0.1 0  0.7777777777777778 0.1 0  0.8333333333333334 0.1 0  0.8888888888888888 0.1 0  0.9444444444444444 0.1 0  1 0.1 0  0 0 0.01  0.05555555555555555 0 0.01  0.1111111111111111 0 0.01  0.1666666666666667 0 0.01  0.2222222222222222 0 0.01  0.2777777777777778 0 0.01  0.3333333333333333 0 0.01  0.3888888888888889 0 0.01  0.4444444444444444 0 0.01  0.5 0 0.01  0.5555555555555556 0 0.01  0.6111111111111112 0 0.01  0.6666666666666666 0 0.01  0.7222222222222222 0 0.01  0.7777777777777778 0 0.01  0.8333333333333334 0 0.01  0.8888888888888888 0 0.01  0.9444444444444444 0 0.01  1 0 0.01  0 0.01428571428571429 0.01  0.05555555555555555 0.01428571428571429 0.01  0.1111111111111111 0.01428571428571429 0.01  0.1666666666666667 0.01428571428571429 0.01  0.2222222222222222 0.01428571428571429 0.01  0.2777777777777778 0.01428571428571429 0.01  0.3333333333333333 0.01428571428571429 0.01  0.3888888888888889 0.01428571428571429 0.01  0.4444444444444444 0.01428571428571429 0.01  0.5 0.01428571428571429 0.01  0.5555555555555556 0.01428571428571429 0.01  0.6111111111111112 0.01428571428571429 0.01  0.6666666666666666 0.01428571428571429 0.01  0.7222222222222222 0.01428571428571429 0.01  0.7777777777777778 0.01428571428571429 0.01  0.8333333333333334 0.01428571428571429 0.01  0.8888888888888888 0.01428571428571429 0.01  0.9444444444444444 0.01428571428571429 0.01  1 0.01428571428571429 0.01  0 0.02857142857142857 0.01  0.05555555555555555 0.02857142857142857 0.01  0.1111111111111111 0.02857142857142857 0.01  0.1666666666666667 0.02857142857142857 0.01  0.2222222222222222 0.02857142857142857 0.01  0.2777777777777778 0.02857142857142857 0.01  0.3333333333333333 0.02857142857142857 0.01  0.3888888888888889 0.02857142857142857 0.01  0.4444444444444444 0.02857142857142857 0.01  0.5 0.02857142857142857 0.01  0.5555555555555556 0.02857142857142857 0.01  0.6111111111111112 0.02857142857142857 0.01  0.6666666666666666 0.02857142857142857 0.01  0.7222222222222222 0.02857142857142857 0.01  0.7777777777777778 0.02857142857142857 0.01  0.8333333333333334 0.02857142857142857 0.01  0.8888888888888888 0.02857142857142857 0.01  0.9444444444444444 0.02857142857142857 0.01  1 0.02857142857142857 0.01  0 0.04285714285714286 0.01  0.05555555555555555 0.04285714285714286 0.01  0.1111111111111111 0.04285714285714286 0.01  0.1666666666666667 0.04285714285714286 0.01  0.2222222222222222 0.04285714285714286 0.01  0.2777777777777778 0.04285714285714286 0.01  0.3333333333333333 0.04285714285714286 0.01  0.3888888888888889 0.04285714285714286 0.01  0.4444444444444444 0.04285714285714286 0.01  0.5 0.04285714285714286 0.01  0.5555555555555556 0.04285714285714286 0.01  0.6111111111111112 0.04285714285714286 0.01  0.6666666666666666 0.04285714285714286 0.01  0.7222222222222222 0.04285714285714286 0.01  0.7777777777777778 0.04285714285714286 0.01  0.8333333333333334 0.04285714285714286 0.01  0.8888888888888888 0.04285714285714286 0.01  0.9444444444444444 0.04285714285714286 0.01  1 0.04285714285714286 0.01  0 0.05714285714285715 0.01  0.05555555555555555 0.05714285714285715 0.01  0.1111111111111111 0.05714285714285715 0.01  0.1666666666666667 0.05714285714285715 0.01  0.2222222222222222 0.05714285714285715 0.01  0.2777777777777778 0.05714285714285715 0.01  0.3333333333333333 0.05714285714285715 0.01  0.3888888888888889 0.05714285714285715 0.01  0.4444444444444444 0.05714285714285715 0.01  0.5 0.05714285714285715 0.01  0.5555555555555556 0.05714285714285715 0.01  0.6111111111111112 0.05714285714285715 0.01  0.6666666666666666 0.05714285714285715 0.01  0.7222222222222222 0.05714285714285715 0.01  0.7777777777777778 0.05714285714285715 0.01  0.8333333333333334 0.05714285714285715 0.01  0.8888888888888888 0.05714285714285715 0.01  0.9444444444444444 0.05714285714285715 0.01  1 0.05714285714285715 0.01  0 0.07142857142857142 0.01  0.05555555555555555 0.07142857142857142 0.01  0.1111111111111111 0.07142857142857142 0.01  0.1666666666666667 0.07142857142857142 0.01  0.2222222222222222 0.07142857142857142 0.01  0.2777777777777778 0.07142857142857142 0.01  0.3333333333333333 0.07142857142857142 0.01  0.3888888888888889 0.07142857142857142 0.01  0.4444444444444444 0.07142857142857142 0.01  0.5 0.07142857142857142 0.01  0.5555555555555556 0.07142857142857142 0.01  0.6111111111111112 0.07142857142857142 0.01  0.6666666666666666 0.07142857142857142 0.01  0.7222222222222222 0.07142857142857142 0.01  0.7777777777777778 0.07142857142857142 0.01  0.8333333333333334 0.07142857142857142 0.01  0.8888888888888888 0.07142857142857142 0.01  
[...]
<PointData  Vectors="f_33"> 
<DataArray  type="Float64"  Name="f_33"  NumberOfComponents="3" format="ascii">0.0000000000000000e+00 0.0000000000000000e+00 0.0000000000000000e+00  5.7738087575731709e-04 1.4215025828377128e-05 8.8292272494097841e-04  1.0673879867138258e-03 -1.0590540491703893e-04 3.3623568302464987e-03  1.5059834575973500e-03 -2.9753742482719681e-04 7.3014161407498803e-03  1.8947930320507059e-03 -5.4702182259489332e-04 1.2536769933614236e-02  2.2353583380456976e-03 -8.4550549471902982e-04 1.8914502239294029e-02  2.5293142521681800e-03 -1.1860597292007024e-03 2.6286258296516263e-02  2.7788355789892150e-03 -1.5625612731229154e-03 3.4509926407154813e-02  2.9866491099598456e-03 -1.9693637704165843e-03 4.3451028122966466e-02  3.1559655404592348e-03 -2.4012175738579765e-03 5.2984179691090511e-02  3.2903921376309306e-03 -2.8532726654760133e-03 6.2994414537323976e-02  3.3938346382247982e-03 -3.3211067765134992e-03 7.3378268555237519e-02  3.4703936267328054e-03 -3.8007581271496641e-03 8.4044578331995037e-02  3.5242620531399232e-03 -4.2887555811189299e-03 9.4914975680602559e-02  3.5596306332327256e-03 -4.7821441495613367e-03 1.0592408837347678e-01  3.5806069986150358e-03 -5.2785059166881058e-03 1.1701947823912577e-01  3.5911544089434781e-03 -5.7759768230106973e-03 1.2816136369321909e-01  3.5950563993552473e-03 -6.2732579629496436e-03 1.3932219083533451e-01  3.5958616361425207e-03 -6.7696531787045438e-03 1.5048620401011209e-01  0.0000000000000000e+00 0.0000000000000000e+00 0.0000000000000000e+00  5.6002746107252060e-04 -1.3427037583346591e-05 9.0853306909394920e-04  1.0709498103475016e-03 -1.2985120212239166e-04 3.3800699838390756e-03  1.5281379589212490e-03 -3.1873163235259503e-04 7.3007225990794839e-03  1.9339959372692752e-03 -5.6560767825360647e-04 1.2516090003770469e-02  2.2899462623048156e-03 -8.6158112186413515e-04 1.8874682501798353e-02  2.5976259142807914e-03 -1.1997401792082402e-03 2.6228946523075912e-02  2.8592337844691126e-03 -1.5739895373595991e-03 3.4437035274587066e-02  3.0775336253847639e-03 -1.9787089958166028e-03 4.3364533106534028e-02  3.2557887053471495e-03 -2.4086707110873582e-03 5.2886027568298369e-02  3.3976767125461120e-03 -2.8590413580591150e-03 6.2886472972306942e-02  3.5071919924519576e-03 -3.3254098853383830e-03 7.3262293023085456e-02  3.5885410024028932e-03 -3.8038202391854469e-03 8.3922188261025363e-02  3.6460381570691523e-03 -4.2908018675402292e-03 9.4787637177553771e-02  3.6840091360551045e-03 -4.7833958906066711e-03 1.0579310270195583e-01  3.7067076238855626e-03 -5.2791769545464957e-03 1.1688597563254487e-01  3.7182508570134418e-03 -5.7762712731450026e-03 1.2802630181984875e-01  3.7225855824916006e-03 -6.2733677908863843e-03 1.3918635500436327e-01  3.7235105209112575e-03 -6.7697106388315241e-03 1.5035019003917796e-01  0.0000000000000000e+00 0.0000000000000000e+00 0.0000000000000000e+00  5.6710495294848642e-04 -3.4703747547133390e-05 9.1913647386123170e-04  1.0918679326377071e-03 -1.5381643608741976e-04 3.3805653222840197e-03  1.5647733784297996e-03 -3.4158563320093449e-04 7.2837543893761268e-03  1.9855185745855305e-03 -5.8625061263775614e-04 1.2480830651979432e-02  2.3549753588515223e-03 -8.7970190825600739e-04 1.8822106828625829e-02  2.6746667173790217e-03 -1.2153181312048061e-03 2.6160673846900830e-02  2.9467886207683734e-03 -1.5871225564801944e-03 3.4354894786342523e-02  3.1741422313270999e-03 -1.9895535588228034e-03 4.3270387156552216e-02  3.3600513072173351e-03 -2.4174183603838943e-03 5.2781689668065561e-02  3.5082721821251303e-03 -2.8659068421539990e-03 6.2773662848986056e-02  3.6228936420580984e-03 -3.3306231414585905e-03 7.3142607942645585e-02  3.7082305901949839e-03 -3.8076198251154529e-03 8.3797083182743329e-02  3.7687182150840945e-03 -4.2934292414118884e-03 9.4658411152606328e-02  3.8088136477695627e-03 -4.7850905074483564e-03 1.0566089056858495e-01  3.8329110067250364e-03 -5.2801722951534820e-03 1.1675174450698529e-01  3.8452745674336665e-03 -5.7767922794783825e-03 1.2789085187109114e-01  3.8500015443440820e-03 -6.2736308003400682e-03 1.3905032324347272e-01  3.8510541579239743e-03 -6.7698971945050071e-03 1.5021404436983318e-01  0.0000000000000000e+00 0.0000000000000000e+00 0.0000000000000000e+00  5.7792580747123318e-04 -5.3551648428457924e-05 9.1696178828175985e-04  1.1166232454764187e-03 -1.7755937659010316e-04 3.3631349609955685e-03  1.6049366041683271e-03 -3.6546832529421906e-04 7.2489586792096961e-03  2.0401938550312594e-03 -6.0830848256962055e-04 1.2429190273429291e-02  2.4227473609879252e-03 -8.9927735074094007e-04 1.8755018420248067e-02  2.7540402239029710e-03 -1.2322596609526599e-03 2.6079839941910439e-02  3.0362837288829985e-03 -1.6014818236487626e-03 3.4262096870891504e-02  3.2723257196944026e-03 -2.0014734378296139e-03 4.3167380454665789e-02  3.4655561095381900e-03 -2.4270900435659666e-03 5.2670147891941792e-02  3.6198136837896013e-03 -2.8735507870505739e-03 6.2655145381312838e-02  3.7392841767972165e-03 -3.3364783050172241e-03 7.3018538278839987e-02  3.8283923559259635e-03 -3.8119359786558836e-03 8.3668734358149921e-02  3.8916946419631387e-03 -4.2964607292643375e-03 9.4526896525438053e-02  3.9337792550694700e-03 -4.7870910386644157e-03 1.0552715921153594e-01  3.9591798125137405e-03 -5.2813907251264523e-03 1.1661658070637625e-01  3.9723063675732263e-03 -5.7774697790281826e-03 1.2775487827382251e-01  3.9774018256169977e-03 -6.2740017546274529e-03 1.3891400625315711e-01  3.9785730952076673e-03 -6.7701896161056693e-03 1.5007768961943316e-01  0.0000000000000000e+00 0.0000000000000000e+00 0.0000000000000000e+00  5.8755855919012732e-04 -7.2597181094871544e-05 9.0300415286615398e-04  1.1416195822532211e-03 -2.0183507167572423e-04 3.3286253458338546e-03  1.6459237018270586e-03 -3.9031551413733369e-04 7.1963970083344870e-03  2.0958394974624640e-03 -6.3150125723891986e-04 1.2360933927476727e-02  2.4914717435878609e-03 -9.1998160615587316e-04 1.8673084657502833e-02  2.8342907588109314e-03 -1.2502456690442003e-03 2.5986096942296994e-02  3.1265607977495010e-03 -1.6167717549127275e-03 3.4158311767630359e-02  3.3711905626957936e-03 -2.0142019158018464e-03 4.3055213864169446e-02  3.5716423496696720e-03 -2.4374493191089476e-03 5.2551137726511321e-02  3.7318406665221081e-03 -2.8817668188045147e-03 6.2530691112528389e-02  3.8560702178749920e-03 -3.3427980238892058e-03 7.2889888447209603e-02  3.9488670260398716e-03 -3.8166187665143519e-03 8.3536978039870521e-02  4.0149097174217449e-03 -4.2997717750226840e-03 9.4392958815745789e-02  4.0589182231622473e-03 -4.7892959013708788e-03 1.0539180044922047e-01  4.0855660335222107e-03 -5.2827509612269055e-03 1.1648039899306198e-01  4.0994096247428027e-03 -5.7782397890118716e-03 1.2761831481296046e-01  4.1048382708738021e-03 -6.2744300043368530e-03 1.3877735163793145e-01  4.1061042879797184e-03 -6.7705425855977691e-03 1.4994108487043978e-01  0.0000000000000000e+00 0.0000000000000000e+00 0.0000000000000000e+00  5.9430997270331514e-04 -9.4100619832305596e-05 8.7670957885994233e-04  1.1652002015701526e-03 -2.2786664820165968e-04 3.2769086076955296e-03  1.6863143130415083e-03 -4.1656540351867657e-04 7.1260049791145282e-03  2.1512336684293108e-03 -6.5592311180853562e-04 1.2275941812716804e-02  2.5601102285330883e-03 -9.4178230454216227e-04 1.8576155378689087e-02  2.9145544813813707e-03 -1.2691976488533787e-03 2.5879291588047415e-02  3.2169187351203353e-03 -1.6328971795406145e-03 3.4043396764808637e-02  3.4701844329473827e-03 -2.0276386973623831e-03 4.2933760727312975e-02  3.6778908788744646e-03 -2.4483958377109617e-03 5.2424550185862583e-02  3.8440504005684841e-03 -2.8904571907934023e-03 6.2400208606847092e-02  3.9730479148110771e-03 -3.3494888285619333e-03 7.2756583643024481e-02  4.0695317032472230e-03 -3.8215801764821039e-03 8.3401754742364151e-02  4.1383035561535376e-03 -4.3032806558952587e-03 9.4256552337252678e-02  4.1842160371435531e-03 -4.7916301735445848e-03 1.0525478075599266e-01  4.2120833722637295e-03 -5.2841850994444677e-03 1.1634317623310385e-01  4.2266100813521086e-03 -5.7790414037273861e-03 1.2748114664529375e-01  4.2323368110042054e-03 -6.2748606661155873e-03 1.3864035052726234e-01  4.2336697864676998e-03 -6.7708995726734958e-03 1.4980422637000335e-01  0.0000000000000000e+00 0.0000000000000000e+00 0.0000000000000000e+00  5.9569559543665510e-04 -1.2005030669685477e-04 8.3546838267993507e-04  1.1844650755867582e-03 -2.5681597792053700e-04 3.2065446918277869e-03  1.7232011493901200e-03 -4.4477365528580362e-04 7.0370751845886172e-03  2.2036576165382132e-03 -6.8180772855383097e-04 1.2173766111895285e-02  2.6262342271484115e-03 -9.6476795604631444e-04 1.8463900486670043e-02  2.9927230743659020e-03 -1.2891381754134622e-03 2.5759168320864216e-02  3.3055687809566826e-03 -1.6498474419152009e-03 3.3917154672138648e-02  3.5678235743205828e-03 -2.0417537556097301e-03 4.2802873613579533e-02  3.7831011103762169e-03 -2.4598868197810439e-03 5.2290281099823539e-02  3.9554992020347790e-03 -2.8995702525255029e-03 6.2263630970862481e-02  4.0895013374103355e-03 -3.3564930247380019e-03 7.2618588370395198e-02  4.1898672600282245e-03 -3.8267588282940748e-03 8.3263054557526903e-02  4.2615219627391730e-03 -4.3069243645584461e-03 9.4117687109707499e-02  4.3094514044720450e-03 -4.7940309991053994e-03 1.0511612467641003e-01  4.3386118276533114e-03 -5.2856319221147160e-03 1.1620494641333559e-01  4.3538580888462623e-03 -5.7798164606865463e-03 1.2734341223776854e-01  4.3598911609770757e-03 -6.2752384862234155e-03 1.3850304137907485e-01  4.3612806360155626e-03 -6.7712000642483764e-03 1.4966714891954341e-01  0.0000000000000000e+00 0.0000000000000000e+00 0.0000000000000000e+00  5.8044048036135886e-04 -1.4892944557493576e-04 7.7804913069417136e-04  1.1868206232579738e-03 -2.8723908576755669e-04 3.1175636085568723e-03  1.7443925166348425e-03 -4.7355614379625396e-04 6.9304005571948117e-03  2.2418802954063594e-03 -7.0784851820334142e-04 1.2055427035291427e-02  2.6798330678033870e-03 -9.8774918899798719e-04 1.8337371037832801e-02  3.0600768586111458e-03 -1.3090181787376092e-03 2.5626730801552026e-02  3.3850664364428458e-03 -1.6667199103547277e-03 3.3780510885294976e-02  3.6578803804554311e-03 -2.0557870114877885e-03 4.2663387523508733e-02  3.8821794564893020e-03 -2.4712956673843276e-03 5.2149070938973696e-02  4.0621284960598893e-03 -2.9086010772946106e-03 6.2121603952980851e-02  4.2022968889056890e-03 -3.3634140284776819e-03 7.2476455843833401e-02  4.3075478817102648e-03 -3.8318523162411138e-03 8.3121342061907383e-02  4.3829258648155345e-03 -4.3104801221591511e-03 9.3976744293767761e-02  4.4335500411140467e-03 -4.7963406211865419e-03 1.0497613621066326e-01  4.4645216296415975e-03 -5.2869842860526683e-03 1.1606594343740861e-01  4.4808506886637378e-03 -5.7804950670717033e-03 1.2720528304733492e-01  4.4874130521376301e-03 -6.2755173591965670e-03 1.3836553422746881e-01  4.4889470078227954e-03 -6.7714009934874029e-03 1.4952990208901429e-01  0.0000000000000000e+00 0.0000000000000000e+00 0.0000000000000000e+00  2.4991960005746778e-04 -8.6563886932127291e-06 8.5867564002878836e-04  4.6861817994684564e-04 -1.2263053992246490e-04 3.3403082173716530e-03  6.6280064032533373e-04 -3.0054284123335359e-04 7.2815287100215370e-03  8.3482991443764847e-04 -5.3546045160694289e-04 1.2519089070379139e-02  9.8548991243595121e-04 -8.2008995369038868e-04 1.8899007681722636e-02  1.1154681062669415e-03 -1.1480005530697427e-03 2.6272888399654797e-02  1.2257152837007483e-03 -1.5132353264806554e-03 3.4498584708721927e-02  1.3174502184081273e-03 -1.9101872470163002e-03 4.3441589918212266e-02  1.3921183156636009e-03 -2.3335866699751798e-03 5.2976497276102902e-02  1.4513457941321948e-03 -2.7785294491485977e-03 6.2988321964746158e-02  1.4968915219587681e-03 -3.2405158950185521e-03 7.3373586441746547e-02  1.5305972250205611e-03 -3.7154895223604004e-03 8.4041118741746912e-02  1.5543384672797830e-03 -4.1998717173007006e-03 9.4912546871595727e-02  1.5699793348217263e-03 -4.6905913264643660e-03 1.0592249913703457e-01  1.5793335896006348e-03 -5.1851094438176469e-03 1.1701854159622689e-01  1.5841351970540703e-03 -5.6814395406448387e-03 1.2816089965877878e-01  1.5860204825361682e-03 -6.1781596628060079e-03 1.3932202751180608e-01  1.5864731911417710e-03 -6.6744459714865173e-03 1.5048613454289814e-01  0.0000000000000000e+00 0.0000000000000000e+00 0.0000000000000000e+00  2.5431920904414189e-04 -2.5118356956467103e-05 8.8144237575911390e-04  4.9386197776172831e-04 -1.3552916306107217e-04 3.3574969511721525e-03  7.0439775195310660e-04 -3.1198934510926450e-04 7.2805517848005133e-03  8.9122266934774780e-04 -5.4552061088071274e-04 1.2498212421674674e-02  1.0550412313219614e-03 -8.2880443395997097e-04 1.8859025585398353e-02  1.1965937012758917e-03 -1.1554233955533815e-03 2.6215432454324498e-02  1.3168897231383208e-03 -1.5194399842265169e-03 3.4425562776397592e-02  1.4172118890370987e-03 -1.9152635654924881e-03 4.3354976616314100e-02  1.4990797865500436e-03 -2.3376374144281338e-03 5.2878239828532951e-02  1.5642068497892631e-03 -2.7816669858593845e-03 6.2880288749347021e-02  1.6144524737567978e-03 -3.2428588998794699e-03 7.3257533484088491e-02  1.6517713243161009e-03 -3.7171597507495617e-03 8.3918665666959658e-02  1.6781629215285605e-03 -4.2009909812791802e-03 9.4785159541847491e-02  1.6956247699792405e-03 -4.6912788436140329e-03 1.0579147809226520e-01  1.7061118782237031e-03 -5.1854797346445490e-03 1.1688501586809624e-01  1.7115053304547522e-03 -5.6816012348521608e-03 1.2802582530701495e-01  1.7135965273194754e-03 -6.1782152311440413e-03 1.3918618714582059e-01  1.7140946020039105e-03 -6.6744659007292257e-03 1.5035013612814976e-01  0.0000000000000000e+00 0.0000000000000000e+00 0.0000000000000000e+00  2.6560483205630012e-04 -3.6231138124339859e-05 8.9067022048204937e-04  5.2072286182672559e-04 -1.4747768087450662e-04 3.3564945563129920e-03  7.4703248122773096e-04 -3.2330139615026549e-04 7.2626724086120396e-03  9.4826396640776813e-04 -5.5569157977348202e-04 1.2462290972174064e-02  1.1249804979015744e-03 -8.3770857073723920e-04 1.8805920826393988e-02  1.2779090380912468e-03 -1.1630600582423400e-03 2.6146720906591016e-02  1.4080947643924874e-03 -1.5258621088841712e-03 3.4343056599949968e-02  1.5168763920587248e-03 -1.9205515222116833e-03 4.3260529625601257e-02  1.6058450553729418e-03 -2.3418884591567394e-03 5.2773659603138512e-02  1.6768002146349504e-03 -2.7849896506858887e-03 6.2767289665876136e-02  1.7317007906502741e-03 -3.2453690009305856e-03 7.3137707360562090e-02  1.7726131850789157e-03 -3.7189770181575788e-03 8.3793461718880261e-02  1.8016594173314734e-03 -4.2022360842389802e-03 9.4655870753396654e-02  1.8209687852654896e-03 -4.6920708209682530e-03 1.0565923293908387e-01  1.8326358932811012e-03 -5.1859339147611767e-03 1.1675077485632990e-01  1.8386872492859763e-03 -5.6818281251754975e-03 1.2789038187772794e-01  1.8410638871753258e-03 -6.1783218581389875e-03 1.3905017169544837e-01  1.8416486005813388e-03 -6.6745404949344056e-03 1.5021401515313881e-01  0.0000000000000000e+00 0.0000000000000000e+00 0.0000000000000000e+00  2.7872525259199822e-04 -4.5977591958994684e-05 8.8734490982985250e-04  5.4918039609694986e-04 -1.5916046484072354e-04 3.3378366573739841e-03  7.9099280969857709e-04 -3.3497673769453676e-04 7.2269298314871352e-03  1.0064405255538029e-03 -5.6646492829030652e-04 1.2409911665524567e-02  1.1958734811952686e-03 -8.4725440863303830e-04 1.8738226723095379e-02  1.3600041158806995e-03 -1.1713070616507649e-03 2.6065378657138108e-02  1.4999178752963087e-03 -1.5328387767609411e-03 3.4249831275890361e-02  1.6170123405143762e-03 -1.9263304306740877e-03 4.3157167656856232e-02  1.7129520383510845e-03 -2.3465654392509595e-03 5.2661828392894877e-02  1.7896237020384796e-03 -2.7886746392105310e-03 6.2648542818504349e-02  1.8490865225253659e-03 -3.2481807968587966e-03 7.3013462440964558e-02  1.8935189311319709e-03 -3.7210394692798717e-03 8.3664985477520395e-02  1.9251653452179193e-03 -4.2036749558496279e-03 9.4524269884282558e-02  1.9462864311878571e-03 -4.6930111608211797e-03 1.0552544950557420e-01  1.9591157942350848e-03 -5.1864978840489894e-03 1.1661558584173397e-01  1.9658247139452585e-03 -5.6821336742363601e-03 1.2775440250637610e-01  1.9685000411003174e-03 -6.1784848309686963e-03 1.3891386157756672e-01  1.9691765308239243e-03 -6.6746757860986173e-03 1.5007767665714883e-01  0.0000000000000000e+00 0.0000000000000000e+00 0.0000000000000000e+00  2.9136057309954498e-04 -5.6214474201321989e-05 8.7266944815025461e-04  5.7786792900358513e-04 -1.7144951346522347e-04 3.3023965610225851e-03  8.3537061825754780e-04 -3.4746709564754529e-04 7.1734999260191206e-03  1.0650750098183037e-03 -5.7811421043635596e-04 1.2340921052339670e-02  1.2671971807229579e-03 -8.5764371193143877e-04 1.8655670775514631e-02  1.4424838829267272e-03 -1.1803226361046546e-03 2.5971104801920341e-02  1.5920746921370096e-03 -1.5404943308546741e-03 3.4145595014178451e-02  1.7174309765952598e-03 -1.9326955329966923e-03 4.3044622452970138e-02  1.8202929076823486e-03 -2.3517380930804491e-03 5.2542506494935283e-02  1.9026357604634305e-03 -2.7927695313526061e-03 6.2523838225765446e-02  1.9666198000670315e-03 -3.2513230249420840e-03 7.2884617934306575e-02  2.0145360244770024e-03 -3.7233602953253920e-03 8.3533083945801861e-02  2.0487515937170821e-03 -4.2053084659906476e-03 9.4390229799743861e-02  2.0716587232876625e-03 -4.6940915076371000e-03 1.0539002418668683e-01  2.0856301318120749e-03 -5.1871570021987728e-03 1.1647936601310133e-01  2.0929823738889027e-03 -5.6824995955875044e-03 1.2761782175616507e-01  2.0959482635261751e-03 -6.1786838383767239e-03 1.3877720355768894e-01  2.0967071672775605e-03 -6.6748497822627130e-03 1.4994107738830501e-01  0.0000000000000000e+00 0.0000000000000000e+00 0.0000000000000000e+00  3.0266088631410913e-04 -6.8372467233155705e-05 8.4629619846925803e-04  6.0589711591140178e-04 -1.8518969150614994e-04 3.2501549190644030e-03  8.7944767684458233e-04 -3.6119647265277802e-04 7.1024741277567758e-03  1.1235552261115061e-03 -5.9086837139481262e-04 1.2255333908025605e-02  1.3384392667442114e-03 -8.6902129899024650e-04 1.8558210465236567e-02  1.5249321498105400e-03 -1.1902092207103576e-03 2.5863833215401290e-02  1.6842389993587284e-03 -1.5489038727637505e-03 3.4030275845363160e-02  1.8178877239646344e-03 -1.9397009495375965e-03 4.2922824181082404e-02  1.9276951354044634e-03 -2.3574430611539459e-03 5.2415629613484782e-02  2.0157255510596080e-03 -2.7972960704097474e-03 6.2393118552600033e-02  2.0842406729616207e-03 -3.2548048277703510e-03 7.2751124028654121e-02  2.1356444280415713e-03 -3.7259382294917288e-03 8.3397714989968522e-02  2.1724271165199653e-03 -4.2071270463665536e-03 9.4253715978227529e-02  2.1971129181691234e-03 -4.6952959913195832e-03 1.0525292986263923e-01  2.2122141108440168e-03 -5.1878909973611638e-03 1.1634209527402917e-01  2.2201937392741949e-03 -5.6829030409640486e-03 1.2748062570307314e-01  2.2234345877689466e-03 -6.1788943263307028e-03 1.3864018832045594e-01  2.2242603546038381e-03 -6.6750327536466781e-03 1.4980421216319723e-01  0.0000000000000000e+00 0.0000000000000000e+00 0.0000000000000000e+00  3.1201255209717274e-04 -8.4207301967564603e-05 8.0589209846173551e-04  6.3228092101946267e-04 -2.0151437252196081e-04 3.1798567747481532e-03  9.2215681435450325e-04 -3.7690241285746895e-04 7.0133373272412303e-03  1.1808529004219965e-03 -6.0523927551862531e-04 1.2152876166124786e-02  1.4086734184713926e-03 -8.8177139586736574e-04 1.8445660371789328e-02  1.6065455493469421e-03 -1.2012690239711487e-03 2.5743425196325283e-02  1.7757333382830698e-03 -1.5583076030641215e-03 3.3903768876848060e-02  1.9178261963657913e-03 -1.9475350438912188e-03 4.2791696234175614e-02  2.0347147377348437e-03 -2.3638236350869177e-03 5.2281145796098959e-02  2.1285506447352763e-03 -2.8023581799114347e-03 6.2256353299211295e-02  2.2016960653425035e-03 -3.2586961971561570e-03 7.2612968540659475e-02  2.2566673839660603e-03 -3.7288147093338104e-03 8.3258881632143344e-02  2.2960780012314147e-03 -4.2091488930892677e-03 9.4114743617426153e-02  2.3225843729095166e-03 -4.69