<?xml version="1.0"?>
<VTKFile type="UnstructuredGrid"  version="0.1"  >
<UnstructuredGrid>
<Piece  NumberOfPoints="760" NumberOfCells="3024">
<Points>
<DataArray  type="Float64"  NumberOfComponents="3"  format="ascii">0 0 0  0.05555555555555555 0 0  0.1111111111111111 0 0  0.1666666666666667 0 0  0.2222222222222222 0 0  0.2777777777777778 0 0  0.3333333333333333 0 0  0.3888888888888889 0 0  0.4444444444444444 0 0  0.5 0 0  0.5555555555555556 0 0  0.6111111111111112 0 0  0.6666666666666666 0 0  0.7222222222222222 0 0  0.7777777777777778 0 0  0.8333333333333334 0 0  0.8888888888888888 0 0  0.9444444444444444 0 0  1 0 0  0 0.01428571428571429 0  0.05555555555555555 0.01428571428571429 0  0.1111111111111111 0.01428571428571429 0  0.1666666666666667 0.01428571428571429 0  0.2222222222222222 0.01428571428571429 0  0.2777777777777778 0.01428571428571429 0  0.3333333333333333 0.01428571428571429 0  0.3888888888888889 0.01428571428571429 0  0.4444444444444444 0.01428571428571429 0  0.5 0.01428571428571429 0  0.5555555555555556 0.01428571428571429 0  0.6111111111111112 0.01428571428571429 0  0.6666666666666666 0.01428571428571429 0  0.7222222222222222 0.01428571428571429 0  0.7777777777777778 0.01428571428571429 0  0.8333333333333334 0.01428571428571429 0  0.8888888888888888 0.01428571428571429 0  0.9444444444444444 0.01428571428571429 0  1 0.01428571428571429 0  0 0.02857142857142857 0  0.05555555555555555 0.02857142857142857 0  0.1111111111111111 0.02857142857142857 0  0.1666666666666667 0.02857142857142857 0  0.2222222222222222 0.02857142857142857 0  0.2777777777777778 0.02857142857142857 0  0.3333333333333333 0.02857142857142857 0  0.3888888888888889 0.02857142857142857 0  0.4444444444444444 0.02857142857142857 0  0.5 0.02857142857142857 0  0.5555555555555556 0.02857142857142857 0  0.6111111111111112 0.02857142857142857 0  0.6666666666666666 0.02857142857142857 0  0.7222222222222222 0.02857142857142857 0  0.7777777777777778 0.02857142857142857 0  0.8333333333333334 0.02857142857142857 0  0.8888888888888888 0.02857142857142857 0  0.9444444444444444 0.02857142857142857 0  1 0.02857142857142857 0  0 0.04285714285714286 0  0.05555555555555555 0.04285714285714286 0  0.1111111111111111 0.04285714285714286 0  0.1666666666666667 0.04285714285714286 0  0.2222222222222222 0.04285714285714286 0  0.2777777777777778 0.04285714285714286 0  0.3333333333333333 0.04285714285714286 0  0.3888888888888889 0.04285714285714286 0  0.4444444444444444 0.04285714285714286 0  0.5 0.04285714285714286 0  0.5555555555555556 0.04285714285714286 0  0.6111111111111112 0.04285714285714286 0  0.6666666666666666 0.04285714285714286 0  0.7222222222222222 0.04285714285714286 0  0.7777777777777778 0.04285714285714286 0  0.8333333333333334 0.04285714285714286 0  0.8888888888888888 0.04285714285714286 0  0.9444444444444444 0.04285714285714286 0  1 0.04285714285714286 0  0 0.05714285714285715 0  0.05555555555555555 0.05714285714285715 0  0.1111111111111111 0.05714285714285715 0  0.1666666666666667 0.05714285714285715 0  0.2222222222222222 0.05714285714285715 0  0.2777777777777778 0.05714285714285715 0  0.3333333333333333 0.05714285714285715 0  0.3888888888888889 0.05714285714285715 0  0.4444444444444444 0.05714285714285715 0  0.5 0.05714285714285715 0  0.5555555555555556 0.05714285714285715 0  0.6111111111111112 0.05714285714285715 0  0.6666666666666666 0.05714285714285715 0  0.7222222222222222 0.05714285714285715 0  0.7777777777777778 0.05714285714285715 0  0.8333333333333334 0.05714285714285715 0  0.8888888888888888 0.05714285714285715 0  0.9444444444444444 0.05714285714285715 0  1 0.05714285714285715 0  0 0.07142857142857142 0  0.05555555555555555 0.07142857142857142 0  0.1111111111111111 0.07142857142857142 0  0.1666666666666667 0.07142857142857142 0  0.2222222222222222 0.07142857142857142 0  0.2777777777777778 0.07142857142857142 0  0.3333333333333333 0.07142857142857142 0  0.3888888888888889 0.07142857142857142 0  0.4444444444444444 0.07142857142857142 0  0.5 0.07142857142857142 0  0.5555555555555556 0.07142857142857142 0  0.6111111111111112 0.07142857142857142 0  0.6666666666666666 0.07142857142857142 0  0.7222222222222222 0.07142857142857142 0  0.7777777777777778 0.07142857142857142 0  0.8333333333333334 0.07142857142857142 0  0.8888888888888888 0.07142857142857142 0  0.9444444444444444 0.07142857142857142 0  1 0.07142857142857142 0  0 0.08571428571428573 0  0.05555555555555555 0.08571428571428573 0  0.1111111111111111 0.08571428571428573 0  0.1666666666666667 0.08571428571428573 0  0.2222222222222222 0.08571428571428573 0  0.2777777777777778 0.08571428571428573 0  0.3333333333333333 0.08571428571428573 0  0.3888888888888889 0.08571428571428573 0  0.4444444444444444 0.08571428571428573 0  0.5 0.08571428571428573 0  0.5555555555555556 0.08571428571428573 0  0.6111111111111112 0.08571428571428573 0  0.6666666666666666 0.08571428571428573 0  0.7222222222222222 0.08571428571428573 0  0.7777777777777778 0.08571428571428573 0  0.8333333333333334 0.08571428571428573 0  0.8888888888888888 0.08571428571428573 0  0.9444444444444444 0.08571428571428573 0  1 0.08571428571428573 0  0 0.1 0  0.05555555555555555 0.1 0  0.1111111111111111 0.1 0  0.1666666666666667 0.1 0  0.2222222222222222 0.1 0  0.2777777777777778 0.1 0  0.3333333333333333 0.1 0  0.3888888888888889 0.1 0  0.4444444444444444 0.1 0  0.5 0.1 0  0.5555555555555556 0.1 0  0.6111111111111112 0.1 0  0.6666666666666666 0.1 0  0.7222222222222222 0.1 0  0.7777777777777778 0.1 0  0.8333333333333334 0.1 0  0.8888888888888888 0.1 0  0.9444444444444444 0.1 0  1 0.1 0  0 0 0.01  0.05555555555555555 0 0.01  0.1111111111111111 0 0.01  0.1666666666666667 0 0.01  0.2222222222222222 0 0.01  0.2777777777777778 0 0.01  0.3333333333333333 0 0.01  0.3888888888888889 0 0.01  0.4444444444444444 0 0.01  0.5 0 0.01  0.5555555555555556 0 0.01  0.6111111111111112 0 0.01  0.6666666666666666 0 0.01  0.7222222222222222 0 0.01  0.7777777777777778 0 0.01  0.8333333333333334 0 0.01  0.8888888888888888 0 0.01  0.9444444444444444 0 0.01  1 0 0.01  0 0.01428571428571429 0.01  0.05555555555555555 0.01428571428571429 0.01  0.1111111111111111 0.01428571428571429 0.01  0.1666666666666667 0.01428571428571429 0.01  0.2222222222222222 0.01428571428571429 0.01  0.2777777777777778 0.01428571428571429 0.01  0.3333333333333333 0.01428571428571429 0.01  0.3888888888888889 0.01428571428571429 0.01  0.4444444444444444 0.01428571428571429 0.01  0.5 0.01428571428571429 0.01  0.5555555555555556 0.01428571428571429 0.01  0.6111111111111112 0.01428571428571429 0.01  0.6666666666666666 0.01428571428571429 0.01  0.7222222222222222 0.01428571428571429 0.01  0.7777777777777778 0.01428571428571429 0.01  0.8333333333333334 0.01428571428571429 0.01  0.8888888888888888 0.01428571428571429 0.01  0.9444444444444444 0.01428571428571429 0.01  1 0.01428571428571429 0.01  0 0.02857142857142857 0.01  0.05555555555555555 0.02857142857142857 0.01  0.1111111111111111 0.02857142857142857 0.01  0.1666666666666667 0.02857142857142857 0.01  0.2222222222222222 0.02857142857142857 0.01  0.2777777777777778 0.02857142857142857 0.01  0.3333333333333333 0.02857142857142857 0.01  0.3888888888888889 0.02857142857142857 0.01  0.4444444444444444 0.02857142857142857 0.01  0.5 0.02857142857142857 0.01  0.5555555555555556 0.02857142857142857 0.01  0.6111111111111112 0.02857142857142857 0.01  0.6666666666666666 0.02857142857142857 0.01  0.7222222222222222 0.02857142857142857 0.01  0.7777777777777778 0.02857142857142857 0.01  0.8333333333333334 0.02857142857142857 0.01  0.8888888888888888 0.02857142857142857 0.01  0.9444444444444444 0.02857142857142857 0.01  1 0.02857142857142857 0.01  0 0.04285714285714286 0.01  0.05555555555555555 0.04285714285714286 0.01  0.1111111111111111 0.04285714285714286 0.01  0.1666666666666667 0.04285714285714286 0.01  0.2222222222222222 0.04285714285714286 0.01  0.2777777777777778 0.04285714285714286 0.01  0.3333333333333333 0.04285714285714286 0.01  0.3888888888888889 0.04285714285714286 0.01  0.4444444444444444 0.04285714285714286 0.01  0.5 0.04285714285714286 0.01  0.5555555555555556 0.04285714285714286 0.01  0.6111111111111112 0.04285714285714286 0.01  0.6666666666666666 0.04285714285714286 0.01  0.7222222222222222 0.04285714285714286 0.01  0.7777777777777778 0.04285714285714286 0.01  0.8333333333333334 0.04285714285714286 0.01  0.8888888888888888 0.04285714285714286 0.01  0.9444444444444444 0.04285714285714286 0.01  1 0.04285714285714286 0.01  0 0.05714285714285715 0.01  0.05555555555555555 0.05714285714285715 0.01  0.1111111111111111 0.05714285714285715 0.01  0.1666666666666667 0.05714285714285715 0.01  0.2222222222222222 0.05714285714285715 0.01  0.2777777777777778 0.05714285714285715 0.01  0.3333333333333333 0.05714285714285715 0.01  0.3888888888888889 0.05714285714285715 0.01  0.4444444444444444 0.05714285714285715 0.01  0.5 0.05714285714285715 0.01  0.5555555555555556 0.05714285714285715 0.01  0.6111111111111112 0.05714285714285715 0.01  0.6666666666666666 0.05714285714285715 0.01  0.7222222222222222 0.05714285714285715 0.01  0.7777777777777778 0.05714285714285715 0.01  0.8333333333333334 0.05714285714285715 0.01  0.8888888888888888 0.05714285714285715 0.01  0.9444444444444444 0.05714285714285715 0.01  1 0.05714285714285715 0.01  0 0.07142857142857142 0.01  0.05555555555555555 0.07142857142857142 0.01  0.1111111111111111 0.07142857142857142 0.01  0.1666666666666667 0.07142857142857142 0.01  0.2222222222222222 0.07142857142857142 0.01  0.2777777777777778 0.07142857142857142 0.01  0.3333333333333333 0.07142857142857142 0.01  0.3888888888888889 0.07142857142857142 0.01  0.4444444444444444 0.07142857142857142 0.01  0.5 0.07142857142857142 0.01  0.5555555555555556 0.07142857142857142 0.01  0.6111111111111112 0.07142857142857142 0.01  0.6666666666666666 0.07142857142857142 0.01  0.7222222222222222 0.07142857142857142 0.01  0.7777777777777778 0.07142857142857142 0.01  0.8333333333333334 0.07142857142857142 0.01  0.8888888888888888 0.07142857142857142 0.01  
[...]
<PointData  Vectors="f_33"> 
<DataArray  type="Float64"  Name="f_33"  NumberOfComponents="3" format="ascii">0.0000000000000000e+00 0.0000000000000000e+00 0.0000000000000000e+00  -2.1134029687857659e-03 -1.1125109121122519e-04 -3.0804902522409451e-03  -3.9412673191960958e-03 1.7151364486543469e-04 -1.1813361535362747e-02  -5.6081834319912094e-03 6.2723849243399063e-04 -2.5797768681833991e-02  -7.1171021159771126e-03 1.2163087195575985e-03 -4.4532543856054992e-02  -8.4706002902935045e-03 1.9165658423402595e-03 -6.7543181405920125e-02  -9.6707718062097395e-03 2.7122929341794355e-03 -9.4365363925058898e-02  -1.0720715864416808e-02 3.5901157060399843e-03 -1.2454426385914896e-01  -1.1624767288569380e-02 4.5377420874978215e-03 -1.5763675986760478e-01  -1.2388568643886943e-02 5.5435876416791777e-03 -1.9321468383944312e-01  -1.3019146565800849e-02 6.5967149124285061e-03 -2.3086861592987501e-01  -1.3524990477156565e-02 7.6868892284935493e-03 -2.7021205018366840e-01  -1.3916123252563598e-02 8.8046803970259335e-03 -3.1088583585966639e-01  -1.4204159766795083e-02 9.9415840769193162e-03 -3.5256283082679946e-01  -1.4402352679845055e-02 1.1090152975446219e-02 -3.9495271777768742e-01  -1.4525627112476276e-02 1.2244134850665818e-02 -4.3780694238773399e-01  -1.4590616256456254e-02 1.3398616420953219e-02 -4.8092374133743326e-01  -1.4615735652632819e-02 1.4550164328392476e-02 -5.2415328581216836e-01  -1.4621110221550236e-02 1.5697073804561545e-02 -5.6740349119358890e-01  0.0000000000000000e+00 0.0000000000000000e+00 0.0000000000000000e+00  -2.0252952392359178e-03 -7.3247876154975575e-06 -3.1716669708109395e-03  -3.9045699472630055e-03 2.6349889506348083e-04 -1.1878097446512664e-02  -5.6160293602808510e-03 7.1043196754406318e-04 -2.5798612117892961e-02  -7.1663227751510320e-03 1.2910236787260932e-03 -4.4462844032472561e-02  -8.5577913359639376e-03 1.9829512221873594e-03 -6.7404726644716098e-02  -9.7925399378211413e-03 2.7705170027493408e-03 -9.4162762948938272e-02  -1.0873694640127423e-02 3.6404075431728071e-03 -1.2428313190838736e-01  -1.1805615087317332e-02 4.5804001909996285e-03 -1.5732307432024908e-01  -1.2593976640136726e-02 5.5789844854913853e-03 -1.9285452414587559e-01  -1.3245856221006363e-02 6.6253013456935963e-03 -2.3046803927670878e-01  -1.3769816650993095e-02 7.7091984636643920e-03 -2.6977701481865274e-01  -1.4175980818006412e-02 8.8213313145895141e-03 -3.1042213971219240e-01  -1.4476092754041847e-02 9.9532837482921872e-03 -3.5207605348062737e-01  -1.4683565393099823e-02 1.1097698288333062e-02 -3.9444816124145587e-01  -1.4813515994630762e-02 1.2248413042146165e-02 -4.3728956789152817e-01  -1.4882797109659049e-02 1.3400604379487044e-02 -4.8039809669891909e-01  -1.4910078717253855e-02 1.4550917136732183e-02 -5.2362339959310467e-01  -1.4916168398228543e-02 1.5697460965705418e-02 -5.6687262000173899e-01  0.0000000000000000e+00 0.0000000000000000e+00 0.0000000000000000e+00  -2.0268029814140406e-03 7.2263669992403268e-05 -3.2082391804150977e-03  -3.9327283382311123e-03 3.5393770000291232e-04 -1.1880034999473890e-02  -5.6794002591221337e-03 7.9793602075043106e-04 -2.5739103804694546e-02  -7.2641353319524643e-03 1.3716449058479257e-03 -4.4337996491425447e-02  -8.6874795417716047e-03 2.0554194835260388e-03 -6.7216899171201910e-02  -9.9511084118651064e-03 2.8345253509351556e-03 -9.3916622953462134e-02  -1.1058053554231591e-02 3.6960217036009547e-03 -1.2398419045616341e-01  -1.2012686834321638e-02 4.6278641550624947e-03 -1.5697712003953934e-01  -1.2820745253028750e-02 5.6186578154586711e-03 -1.9246738338016520e-01  -1.3489402383853152e-02 6.6576400127783030e-03 -2.3004545606303095e-01  -1.4027348936586389e-02 7.7347504133851250e-03 -2.6932457390467518e-01  -1.4444866454335410e-02 8.8407368325406840e-03 -3.0994520367478917e-01  -1.4753889048221672e-02 9.9672770297053424e-03 -3.5157970318507714e-01  -1.4968052045006541e-02 1.1107108674259373e-02 -3.9393713568095379e-01  -1.5102727390803773e-02 1.2254164810485820e-02 -4.3676820156168228e-01  -1.5175049283570509e-02 1.3403714966621877e-02 -4.7987025173760323e-01  -1.5203982147482751e-02 1.4552495958807064e-02 -5.2309238152111870e-01  -1.5210685918425998e-02 1.5698576217323370e-02 -5.6634099835675578e-01  0.0000000000000000e+00 0.0000000000000000e+00 0.0000000000000000e+00  -2.0428215076329840e-03 1.4145288753958965e-04 -3.1988954480849765e-03  -3.9755812078156325e-03 4.4188505464127972e-04 -1.1816974599883717e-02  -5.7564451877871311e-03 8.8752103851506478e-04 -2.5614025789729249e-02  -7.3744686937666851e-03 1.4558828206692378e-03 -4.4151775578839217e-02  -8.8283894165564498e-03 2.1318382907697872e-03 -6.6973507463454166e-02  -1.0119556396692066e-02 2.9023568217083503e-03 -9.3621191943818419e-02  -1.1250962030809131e-02 3.7551622396708173e-03 -1.2364226929038613e-01  -1.2227017515696494e-02 4.6784999427484566e-03 -1.5659434945215520e-01  -1.3053539347799589e-02 5.6611341979482697e-03 -1.9204933580739572e-01  -1.3737812882413530e-02 6.6924172292545832e-03 -2.2959754210653641e-01  -1.4288671284381009e-02 7.7623898731055251e-03 -2.6885197315187370e-01  -1.4716569425746544e-02 8.8618981006522175e-03 -3.0945280317121571e-01  -1.5033646438476433e-02 9.9827182328459906e-03 -3.5107203728007019e-01  -1.5253775285146556e-02 1.1117687363117400e-02 -3.9341832510113872e-01  -1.5392598646191885e-02 1.2260837416066643e-02 -4.3624189117256024e-01  -1.5467550219337982e-02 1.3407534273173373e-02 -4.7933954644549059e-01  -1.5497896934143189e-02 1.4554614223858370e-02 -5.2255977195909808e-01  -1.5505106860166014e-02 1.5700246362265698e-02 -5.6580819712701391e-01  0.0000000000000000e+00 0.0000000000000000e+00 0.0000000000000000e+00  -2.0549796517607029e-03 2.0959678242754505e-04 -3.1472550864929919e-03  -4.0194817773847175e-03 5.3000530378330575e-04 -1.1691990350810488e-02  -5.8365259683805879e-03 9.7899222170759622e-04 -2.5423666522803232e-02  -7.4883923301210025e-03 1.5427880740725884e-03 -4.3903415073177438e-02  -8.9728858668520779e-03 2.2110858204931081e-03 -6.6673421946196451e-02  -1.0291384673486762e-02 2.9728996421602735e-03 -9.3275266768978377e-02  -1.1446969916317490e-02 3.8167851229485303e-03 -1.2325620935020509e-01  -1.2444138487079818e-02 4.7313492735987922e-03 -1.5617369251857202e-01  -1.3288804837059371e-02 5.7055457462781949e-03 -1.9159941596784266e-01  -1.3988374545982250e-02 6.7288550500606273e-03 -2.2912344012274169e-01  -1.4551827984598590e-02 7.7914260543989556e-03 -2.6835846186304491e-01  -1.4989796816620524e-02 8.8842073192458848e-03 -3.0894428988236927e-01  -1.5314628288376379e-02 9.9990773367406183e-03 -3.5055250391019632e-01  -1.5540436109022306e-02 1.1128976096267800e-02 -3.9289126671502111e-01  -1.5683137625850448e-02 1.2268038070950702e-02 -4.3571025384619966e-01  -1.5760474019367001e-02 1.3411728747359408e-02 -4.7880566585428214e-01  -1.5792027360334575e-02 1.4556989797595168e-02 -5.2202530545910519e-01  -1.5799600944209100e-02 1.5702204590239029e-02 -5.6527400428726371e-01  0.0000000000000000e+00 0.0000000000000000e+00 0.0000000000000000e+00  -2.0566601761886801e-03 2.8465959130125269e-04 -3.0514055469868240e-03  -4.0579335366291071e-03 6.2260837536839595e-04 -1.1504686762510407e-02  -5.9139518305381103e-03 1.0739198102327147e-03 -2.5167821343709765e-02  -7.6008494926328380e-03 1.6327432744276094e-03 -4.3592502809922128e-02  -9.1165054964640734e-03 2.2931094407378982e-03 -6.6316110892078645e-02  -1.0462711208692221e-02 3.0459436572639570e-03 -9.2878292438952875e-02  -1.1642758740452537e-02 3.8806225641660531e-03 -1.2282548184055764e-01  -1.2661271092171416e-02 4.7861231681643034e-03 -1.5571466799708095e-01  -1.3524273864507962e-02 5.7515957320473992e-03 -1.9111719832836882e-01  -1.4239295777684988e-02 6.7666540028340581e-03 -2.2862278268303929e-01  -1.4815463255792180e-02 7.8215586549550513e-03 -2.6784373051650179e-01  -1.5263582021539211e-02 8.9073641709941052e-03 -3.0841941064812317e-01  -1.5596204135952413e-02 1.0016054478350737e-02 -3.5002090381929085e-01  -1.5827680606761475e-02 1.1140675930138533e-02 -3.9235581181515927e-01  -1.5974200385168249e-02 1.2275469740556147e-02 -4.3517318659266518e-01  -1.6053814410820474e-02 1.3416005705162597e-02 -4.7826854469458807e-01  -1.6086437975871035e-02 1.4559336811139377e-02 -5.2148894343604379e-01  -1.6094249624362594e-02 1.5704146008456012e-02 -5.6473841016496851e-01  0.0000000000000000e+00 0.0000000000000000e+00 0.0000000000000000e+00  -2.0384705188257204e-03 3.7356029411650838e-04 -2.9021913497300198e-03  -4.0800006764375720e-03 7.2377892112444062e-04 -1.1250021923974896e-02  -5.9776602143449785e-03 1.1742771866301703e-03 -2.4843962489589876e-02  -7.7013003785359234e-03 1.7266141144238502e-03 -4.3217380800878745e-02  -9.2495955499255905e-03 2.3782829236041994e-03 -6.5900297256327109e-02  -1.0624902838745153e-02 3.1216443027324834e-03 -9.2429228720714421e-02  -1.1830747864300885e-02 3.9467220715193136e-03 -1.2234923561375188e-01  -1.2871877562140524e-02 4.8428046781631307e-03 -1.5521659372603669e-01  -1.3754419975496113e-02 5.7992202236680935e-03 -1.9060215740983566e-01  -1.4486015212508505e-02 6.8057108746710799e-03 -2.2809519017989169e-01  -1.5075922290034434e-02 7.8526494315364591e-03 -2.6730753389920059e-01  -1.5535106557759141e-02 8.9311986194046400e-03 -3.0787804170731098e-01  -1.5876309890367715e-02 1.0033450981937451e-02 -3.4947721994549569e-01  -1.6114105246691147e-02 1.1152562967150182e-02 -3.9181203322979991e-01  -1.6264937413371500e-02 1.2282887297560689e-02 -4.3463083257790713e-01  -1.6347154752886294e-02 1.3420104751186270e-02 -4.7772837179790145e-01  -1.6381020506666528e-02 1.4561380750230194e-02 -5.2095089032483421e-01  -1.6389080579409347e-02 1.5705762232669614e-02 -5.6420160960542343e-01  0.0000000000000000e+00 0.0000000000000000e+00 0.0000000000000000e+00  -1.9595342317679154e-03 4.7082804981521642e-04 -2.6952055996034411e-03  -4.0397468984726369e-03 8.2823871155335424e-04 -1.0928274116078485e-02  -5.9825204226561174e-03 1.2749090560794179e-03 -2.4455055244115263e-02  -7.7473857200371513e-03 1.8194531137279398e-03 -4.2781824473756440e-02  -9.3335347071937386e-03 2.4620206373140428e-03 -6.5429885698959564e-02  -1.0743421744913335e-02 3.1958724215897885e-03 -9.1931841261018096e-02  -1.1980556365070753e-02 4.0114482524956476e-03 -1.2183099348329007e-01  -1.3049681900921413e-02 4.8982558279654590e-03 -1.5468270893487632e-01  -1.3956949145800470e-02 5.8457645730665584e-03 -1.9005723283938381e-01  -1.4710046059459291e-02 6.8438298883052541e-03 -2.2754329697256748e-01  -1.5318305057998732e-02 7.8829296129631302e-03 -2.6675220052728182e-01  -1.5792792133298286e-02 8.9543306796371243e-03 -3.0732220842531904e-01  -1.6146378930152448e-02 1.0050231362330280e-02 -3.4892317990595151e-01  -1.6393799030689639e-02 1.1163895849397133e-02 -3.9126136879834361e-01  -1.6551690575368413e-02 1.2289786800949195e-02 -4.3408435030152909e-01  -1.6638631347244168e-02 1.3423699834880789e-02 -4.7718603750493016e-01  -1.6675205488924743e-02 1.4562898423740988e-02 -5.2041173916630601e-01  -1.6684140061921062e-02 1.5706850818885027e-02 -5.6366387128784090e-01  0.0000000000000000e+00 0.0000000000000000e+00 0.0000000000000000e+00  -9.5937737364144913e-04 -2.9878916686582627e-05 -2.9911928676923361e-03  -1.8177413971488653e-03 2.3272662311389926e-04 -1.1730847419898461e-02  -2.5962275589754627e-03 6.4096720135116414e-04 -2.5721994826056218e-02  -3.3014841648776817e-03 1.1787818383102873e-03 -4.4463774099881725e-02  -3.9348829546438369e-03 1.8294230876180783e-03 -6.7481471529335119e-02  -4.4971923501289420e-03 2.5789204326261634e-03 -9.4310666737649207e-02  -4.9897186385782378e-03 3.4145314488511257e-03 -1.2449645118410095e-01  -5.4143965615107443e-03 4.3241982647117512e-03 -1.5759563576046187e-01  -5.7737894611200923e-03 5.2964084497747850e-03 -1.9317998825746630e-01  -6.0711091035165754e-03 6.3202172159598476e-03 -2.3084002357589350e-01  -6.3102466326207078e-03 7.3853320789239816e-03 -2.7018916778458479e-01  -6.4958037076114170e-03 8.4822235083700272e-03 -3.1086819928326742e-01  -6.6331193724600080e-03 9.6022479070252478e-03 -3.5254990253060536e-01  -6.7282914279764849e-03 1.0737777572722379e-02 -3.9494388470166558e-01  -6.7881930039938631e-03 1.1882335594898121e-02 -4.3780151419739682e-01  -6.8204899498458971e-03 1.3030732460062271e-02 -4.8092094786324358e-01  -6.8336726871653548e-03 1.4179182543528587e-02 -5.2415226852516961e-01  -6.8368966465935741e-03 1.5325489834943584e-02 -5.6740304290950172e-01  0.0000000000000000e+00 0.0000000000000000e+00 0.0000000000000000e+00  -9.4923005774202342e-04 3.4284261435214974e-05 -3.0730639479875509e-03  -1.8600949289419224e-03 2.8457218811447595e-04 -1.1794588470636134e-02  -2.6762739707201482e-03 6.8803617930457211e-04 -2.5722646246979560e-02  -3.4159213316367954e-03 1.2211946200866622e-03 -4.4394121433250028e-02  -4.0802545394774360e-03 1.8672168485125366e-03 -6.7343113245697084e-02  -4.6701818379081377e-03 2.6121589902231056e-03 -9.4108151487556177e-02  -5.1871181389472297e-03 3.4433255591365861e-03 -1.2423537494985828e-01  -5.6330899470075513e-03 4.3487029286125890e-03 -1.5728197159588292e-01  -6.0107583218826921e-03 5.3168218399944050e-03 -1.9281981725817135e-01  -6.3234521271573604e-03 6.3367816915942026e-03 -2.3043940722892006e-01  -6.5752054989043369e-03 7.3983359091109625e-03 -2.6975407004708407e-01  -6.7707923851581687e-03 8.4920025807903778e-03 -3.1040442473055047e-01  -6.9157555197720925e-03 9.6091871507645397e-03 -3.5206303814972906e-01  -7.0164292715264092e-03 1.0742311994345831e-02 -3.9443924061343844e-01  -7.0799566613957855e-03 1.1884951019552312e-02 -4.3728406058797731e-01  -7.1143039517775480e-03 1.3031966721599004e-02 -4.8039524312805743e-01  -7.1283017786103933e-03 1.4179625781206507e-02 -5.2362235155649073e-01  -7.1317772163143620e-03 1.5325649307677309e-02 -5.6687227009163432e-01  0.0000000000000000e+00 0.0000000000000000e+00 0.0000000000000000e+00  -9.6594679499984956e-04 7.7389479492778992e-05 -3.1060829105297415e-03  -1.9096767238589970e-03 3.3132428685209164e-04 -1.1792360725046587e-02  -2.7615803917011516e-03 7.3291458316204435e-04 -2.5660927435361396e-02  -3.5342846670319266e-03 1.2623886500798258e-03 -4.4267817908366223e-02  -4.2286328472669445e-03 1.9041969520386792e-03 -6.7154180471798802e-02  -4.8454367627536231e-03 2.6448043010799658e-03 -9.3861111846631498e-02  -5.3861367993257503e-03 3.4716808528479897e-03 -1.2393568640020498e-01  -5.8528260518736766e-03 4.3728955929861913e-03 -1.5693540086637195e-01  -6.2482590571026767e-03 5.3370352744040320e-03 -1.9243217915857200e-01  -6.5758854666038381e-03 6.3532473881986870e-03 -2.3001643725225956e-01  -6.8398891774784556e-03 7.4113318536578364e-03 -2.6930134467724082e-01  -7.0452243661392744e-03 8.5018536877355562e-03 -3.0992729752845893e-01  -7.1976457708279786e-03 9.6162661731959177e-03 -3.5156657979556299e-01  -7.3037326067994044e-03 1.0747040233367547e-02 -3.9392817854710227e-01  -7.3709057001107806e-03 1.1887798438004740e-02 -4.3676271629138014e-01  -7.4074381815134238e-03 1.3033452567639553e-02 -4.7986746458513341e-01  -7.4224912177044342e-03 1.4180325296154216e-02 -5.2309142991167845e-01  -7.4263449268489740e-03 1.5326125153589264e-02 -5.6634078639874641e-01  0.0000000000000000e+00 0.0000000000000000e+00 0.0000000000000000e+00  -9.9041449060997149e-04 1.1390620534331313e-04 -3.0939761598363568e-03  -1.9658157963316760e-03 3.7552230226767323e-04 -1.1726097473284940e-02  -2.8524391534078741e-03 7.7757383714170247e-04 -2.5533515291332898e-02  -3.6575890897832522e-03 1.3043348304781956e-03 -4.4079872017517438e-02  -4.3813587777662899e-03 1.9422125337119531e-03 -6.6909412627106035e-02  -5.0244497711036994e-03 2.6785217884484330e-03 -9.3564533020367352e-02  -5.5883408943352983e-03 3.5010577506311307e-03 -1.2359279493595465e-01  -6.0751999326234783e-03 4.3980290805335012e-03 -1.5655181486975853e-01  -6.4878816147166058e-03 5.3580994566827514e-03 -1.9201345842059894e-01  -6.8299628251682256e-03 6.3704726838893803e-03 -2.2956798256890665e-01  -7.1057837290507478e-03 7.4249987904080701e-03 -2.6882832593269174e-01  -7.3204853615644605e-03 8.5122916467773122e-03 -3.0943459110207122e-01  -7.4800411927104203e-03 9.6238536821995069e-03 -3.5105870797646438e-01  -7.5912820808501334e-03 1.0752205398796620e-02 -3.9340924841522845e-01  -7.6619138935924190e-03 1.1891018585182290e-02 -4.3623635739736411e-01  -7.7005249428030260e-03 1.3035253758260841e-02 -4.7933676538734576e-01  -7.7166051855039062e-03 1.4181292654790579e-02 -5.2255886645803462e-01  -7.7208102086698044e-03 1.5326916066657250e-02 -5.6580807269720323e-01  0.0000000000000000e+00 0.0000000000000000e+00 0.0000000000000000e+00  -1.0136007193483247e-03 1.5046195976028902e-04 -3.0410901833278418e-03  -2.0230520777584416e-03 4.2020777322211071e-04 -1.1598971201892839e-02  -2.9449613082815525e-03 8.2363328383019876e-04 -2.5341108408492189e-02  -3.7827114059401116e-03 1.3480590076358184e-03 -4.3829813693192228e-02  -4.5358326293770028e-03 1.9820552780488374e-03 -6.6607904822810385e-02  -5.2050711824838183e-03 2.7139631471856437e-03 -9.3217392991518752e-02  -5.7919912060163175e-03 3.5319967729633894e-03 -1.2320569300338516e-01  -6.2988512749537848e-03 4.4245438864108444e-03 -1.5613027131597865e-01  -6.7286130813870573e-03 5.3803615137749906e-03 -1.9156279628836148e-01  -7.0849843271280659e-03 6.3887171960864287e-03 -2.2909327323121070e-01  -7.3724638210102833e-03 7.4395150906459168e-03 -2.6833433252095673e-01  -7.5963814013134505e-03 8.5234206952382631e-03 -3.0892571008941261e-01  -7.7629310852330618e-03 9.6319879372904881e-03 -3.5053890899313966e-01  -7.8791972006788617e-03 1.0757789147574498e-02 -3.9288201264226391e-01  -7.9531731098345052e-03 1.1894547475484780e-02 -4.3570461534505878e-01  -7.9937680099545251e-03 1.3037273211601121e-02 -4.7880283588340006e-01  -8.0108069858993661e-03 1.4182409586163446e-02 -5.2202439271701928e-01  -8.0152976664559054e-03 1.5327884104308629e-02 -5.6527390795951760e-01  0.0000000000000000e+00 0.0000000000000000e+00 0.0000000000000000e+00  -1.0319031292843513e-03 1.9208871076243782e-04 -2.9462467489706208e-03  -2.0776953373555962e-03 4.6834158824347861e-04 -1.1410969310344613e-02  -3.0360719709950764e-03 8.7259811427698440e-04 -2.5084065421447959e-02  -3.9069167008366351e-03 1.3944063081094010e-03 -4.3517726765421941e-02  -4.6896458356739182e-03 2.0242904153185979e-03 -6.6249532806079647e-02  -5.3852186974825186e-03 2.7515562154992374e-03 -9.2819476824612585e-02  -5.9953249437882678e-03 3.5648377797264036e-03 -1.2277413707306892e-01  -6.5223236022546273e-03 4.4527102158627560e-03 -1.5567052622938488e-01  -6.9692856801676934e-03 5.4040298039878679e-03 -1.9107996085466253e-01  -7.3400494758281316e-03 6.4081318245605406e-03 -2.2859209545044384e-01  -7.6392711120389567e-03 7.4549777092087176e-03 -2.6781917226725593e-01  -7.8724674321086954e-03 8.5352874356615996e-03 -3.0840048641892892e-01  -8.0460510250002278e-03 9.6406692412068472e-03 -3.5000704091499385e-01  -8.1673576693946214e-03 1.0763750216710739e-02 -3.9234635708613963e-01  -8.2446665811889176e-03 1.1898308135997659e-02 -4.3516740447449492e-01  -8.2872105916869561e-03 1.3039405687798034e-02 -4.7826561647389643e-01  -8.3051637888969104e-03 1.4183548397274698e-02 -5.2148796869270420e-01  -8.3098767291776097e-03 1.5328867271453090e-02 -5.6473827743172644e-01  0.0000000000000000e+00 0.0000000000000000e+00 0.0000000000000000e+00  -1.0426246694825100e-03 2.4488931831938206e-04 -2.8012793433007219e-03  -2.1257524106025774e-03 5.2392825660572701e-04 -1.1157716972127614e-02  -3.1215020440538196e-03 9.2711784563980252e-04 -2.4760570411565999e-02  -4.0260240614381900e-03 1.4452699095652399e-03 -4.3142612352318289e-02  -4.8389243305691793e-03 2.0703921945328546e-03 -6.5833585346201359e-02  -5.5614100764233843e-03 2.7925097739114344e-03 -9.2370217820946052e-02  -6.1952773750968380e-03 3.6005873479629329e-03 -1.2229766496408262e-01  -6.7429707025447230e-03 4.4833601992987412e-03 -1.5517220895231612e-01  -7.2076609854116866e-03 5.4297771935506150e-03 -1.9056466731494823e-01  -7.5933098464396253e-03 6.4292416002535826e-03 