<?xml version="1.0"?>
<VTKFile type="UnstructuredGrid"  version="0.1"  >
<UnstructuredGrid>
<Piece  NumberOfPoints="760" NumberOfCells="3024">
<Points>
<DataArray  type="Float64"  NumberOfComponents="3"  format="ascii">0 0 0  0.05555555555555555 0 0  0.1111111111111111 0 0  0.1666666666666667 0 0  0.2222222222222222 0 0  0.2777777777777778 0 0  0.3333333333333333 0 0  0.3888888888888889 0 0  0.4444444444444444 0 0  0.5 0 0  0.5555555555555556 0 0  0.6111111111111112 0 0  0.6666666666666666 0 0  0.7222222222222222 0 0  0.7777777777777778 0 0  0.8333333333333334 0 0  0.8888888888888888 0 0  0.9444444444444444 0 0  1 0 0  0 0.01428571428571429 0  0.05555555555555555 0.01428571428571429 0  0.1111111111111111 0.01428571428571429 0  0.1666666666666667 0.01428571428571429 0  0.2222222222222222 0.01428571428571429 0  0.2777777777777778 0.01428571428571429 0  0.3333333333333333 0.01428571428571429 0  0.3888888888888889 0.01428571428571429 0  0.4444444444444444 0.01428571428571429 0  0.5 0.01428571428571429 0  0.5555555555555556 0.01428571428571429 0  0.6111111111111112 0.01428571428571429 0  0.6666666666666666 0.01428571428571429 0  0.7222222222222222 0.01428571428571429 0  0.7777777777777778 0.01428571428571429 0  0.8333333333333334 0.01428571428571429 0  0.8888888888888888 0.01428571428571429 0  0.9444444444444444 0.01428571428571429 0  1 0.01428571428571429 0  0 0.02857142857142857 0  0.05555555555555555 0.02857142857142857 0  0.1111111111111111 0.02857142857142857 0  0.1666666666666667 0.02857142857142857 0  0.2222222222222222 0.02857142857142857 0  0.2777777777777778 0.02857142857142857 0  0.3333333333333333 0.02857142857142857 0  0.3888888888888889 0.02857142857142857 0  0.4444444444444444 0.02857142857142857 0  0.5 0.02857142857142857 0  0.5555555555555556 0.02857142857142857 0  0.6111111111111112 0.02857142857142857 0  0.6666666666666666 0.02857142857142857 0  0.7222222222222222 0.02857142857142857 0  0.7777777777777778 0.02857142857142857 0  0.8333333333333334 0.02857142857142857 0  0.8888888888888888 0.02857142857142857 0  0.9444444444444444 0.02857142857142857 0  1 0.02857142857142857 0  0 0.04285714285714286 0  0.05555555555555555 0.04285714285714286 0  0.1111111111111111 0.04285714285714286 0  0.1666666666666667 0.04285714285714286 0  0.2222222222222222 0.04285714285714286 0  0.2777777777777778 0.04285714285714286 0  0.3333333333333333 0.04285714285714286 0  0.3888888888888889 0.04285714285714286 0  0.4444444444444444 0.04285714285714286 0  0.5 0.04285714285714286 0  0.5555555555555556 0.04285714285714286 0  0.6111111111111112 0.04285714285714286 0  0.6666666666666666 0.04285714285714286 0  0.7222222222222222 0.04285714285714286 0  0.7777777777777778 0.04285714285714286 0  0.8333333333333334 0.04285714285714286 0  0.8888888888888888 0.04285714285714286 0  0.9444444444444444 0.04285714285714286 0  1 0.04285714285714286 0  0 0.05714285714285715 0  0.05555555555555555 0.05714285714285715 0  0.1111111111111111 0.05714285714285715 0  0.1666666666666667 0.05714285714285715 0  0.2222222222222222 0.05714285714285715 0  0.2777777777777778 0.05714285714285715 0  0.3333333333333333 0.05714285714285715 0  0.3888888888888889 0.05714285714285715 0  0.4444444444444444 0.05714285714285715 0  0.5 0.05714285714285715 0  0.5555555555555556 0.05714285714285715 0  0.6111111111111112 0.05714285714285715 0  0.6666666666666666 0.05714285714285715 0  0.7222222222222222 0.05714285714285715 0  0.7777777777777778 0.05714285714285715 0  0.8333333333333334 0.05714285714285715 0  0.8888888888888888 0.05714285714285715 0  0.9444444444444444 0.05714285714285715 0  1 0.05714285714285715 0  0 0.07142857142857142 0  0.05555555555555555 0.07142857142857142 0  0.1111111111111111 0.07142857142857142 0  0.1666666666666667 0.07142857142857142 0  0.2222222222222222 0.07142857142857142 0  0.2777777777777778 0.07142857142857142 0  0.3333333333333333 0.07142857142857142 0  0.3888888888888889 0.07142857142857142 0  0.4444444444444444 0.07142857142857142 0  0.5 0.07142857142857142 0  0.5555555555555556 0.07142857142857142 0  0.6111111111111112 0.07142857142857142 0  0.6666666666666666 0.07142857142857142 0  0.7222222222222222 0.07142857142857142 0  0.7777777777777778 0.07142857142857142 0  0.8333333333333334 0.07142857142857142 0  0.8888888888888888 0.07142857142857142 0  0.9444444444444444 0.07142857142857142 0  1 0.07142857142857142 0  0 0.08571428571428573 0  0.05555555555555555 0.08571428571428573 0  0.1111111111111111 0.08571428571428573 0  0.1666666666666667 0.08571428571428573 0  0.2222222222222222 0.08571428571428573 0  0.2777777777777778 0.08571428571428573 0  0.3333333333333333 0.08571428571428573 0  0.3888888888888889 0.08571428571428573 0  0.4444444444444444 0.08571428571428573 0  0.5 0.08571428571428573 0  0.5555555555555556 0.08571428571428573 0  0.6111111111111112 0.08571428571428573 0  0.6666666666666666 0.08571428571428573 0  0.7222222222222222 0.08571428571428573 0  0.7777777777777778 0.08571428571428573 0  0.8333333333333334 0.08571428571428573 0  0.8888888888888888 0.08571428571428573 0  0.9444444444444444 0.08571428571428573 0  1 0.08571428571428573 0  0 0.1 0  0.05555555555555555 0.1 0  0.1111111111111111 0.1 0  0.1666666666666667 0.1 0  0.2222222222222222 0.1 0  0.2777777777777778 0.1 0  0.3333333333333333 0.1 0  0.3888888888888889 0.1 0  0.4444444444444444 0.1 0  0.5 0.1 0  0.5555555555555556 0.1 0  0.6111111111111112 0.1 0  0.6666666666666666 0.1 0  0.7222222222222222 0.1 0  0.7777777777777778 0.1 0  0.8333333333333334 0.1 0  0.8888888888888888 0.1 0  0.9444444444444444 0.1 0  1 0.1 0  0 0 0.01  0.05555555555555555 0 0.01  0.1111111111111111 0 0.01  0.1666666666666667 0 0.01  0.2222222222222222 0 0.01  0.2777777777777778 0 0.01  0.3333333333333333 0 0.01  0.3888888888888889 0 0.01  0.4444444444444444 0 0.01  0.5 0 0.01  0.5555555555555556 0 0.01  0.6111111111111112 0 0.01  0.6666666666666666 0 0.01  0.7222222222222222 0 0.01  0.7777777777777778 0 0.01  0.8333333333333334 0 0.01  0.8888888888888888 0 0.01  0.9444444444444444 0 0.01  1 0 0.01  0 0.01428571428571429 0.01  0.05555555555555555 0.01428571428571429 0.01  0.1111111111111111 0.01428571428571429 0.01  0.1666666666666667 0.01428571428571429 0.01  0.2222222222222222 0.01428571428571429 0.01  0.2777777777777778 0.01428571428571429 0.01  0.3333333333333333 0.01428571428571429 0.01  0.3888888888888889 0.01428571428571429 0.01  0.4444444444444444 0.01428571428571429 0.01  0.5 0.01428571428571429 0.01  0.5555555555555556 0.01428571428571429 0.01  0.6111111111111112 0.01428571428571429 0.01  0.6666666666666666 0.01428571428571429 0.01  0.7222222222222222 0.01428571428571429 0.01  0.7777777777777778 0.01428571428571429 0.01  0.8333333333333334 0.01428571428571429 0.01  0.8888888888888888 0.01428571428571429 0.01  0.9444444444444444 0.01428571428571429 0.01  1 0.01428571428571429 0.01  0 0.02857142857142857 0.01  0.05555555555555555 0.02857142857142857 0.01  0.1111111111111111 0.02857142857142857 0.01  0.1666666666666667 0.02857142857142857 0.01  0.2222222222222222 0.02857142857142857 0.01  0.2777777777777778 0.02857142857142857 0.01  0.3333333333333333 0.02857142857142857 0.01  0.3888888888888889 0.02857142857142857 0.01  0.4444444444444444 0.02857142857142857 0.01  0.5 0.02857142857142857 0.01  0.5555555555555556 0.02857142857142857 0.01  0.6111111111111112 0.02857142857142857 0.01  0.6666666666666666 0.02857142857142857 0.01  0.7222222222222222 0.02857142857142857 0.01  0.7777777777777778 0.02857142857142857 0.01  0.8333333333333334 0.02857142857142857 0.01  0.8888888888888888 0.02857142857142857 0.01  0.9444444444444444 0.02857142857142857 0.01  1 0.02857142857142857 0.01  0 0.04285714285714286 0.01  0.05555555555555555 0.04285714285714286 0.01  0.1111111111111111 0.04285714285714286 0.01  0.1666666666666667 0.04285714285714286 0.01  0.2222222222222222 0.04285714285714286 0.01  0.2777777777777778 0.04285714285714286 0.01  0.3333333333333333 0.04285714285714286 0.01  0.3888888888888889 0.04285714285714286 0.01  0.4444444444444444 0.04285714285714286 0.01  0.5 0.04285714285714286 0.01  0.5555555555555556 0.04285714285714286 0.01  0.6111111111111112 0.04285714285714286 0.01  0.6666666666666666 0.04285714285714286 0.01  0.7222222222222222 0.04285714285714286 0.01  0.7777777777777778 0.04285714285714286 0.01  0.8333333333333334 0.04285714285714286 0.01  0.8888888888888888 0.04285714285714286 0.01  0.9444444444444444 0.04285714285714286 0.01  1 0.04285714285714286 0.01  0 0.05714285714285715 0.01  0.05555555555555555 0.05714285714285715 0.01  0.1111111111111111 0.05714285714285715 0.01  0.1666666666666667 0.05714285714285715 0.01  0.2222222222222222 0.05714285714285715 0.01  0.2777777777777778 0.05714285714285715 0.01  0.3333333333333333 0.05714285714285715 0.01  0.3888888888888889 0.05714285714285715 0.01  0.4444444444444444 0.05714285714285715 0.01  0.5 0.05714285714285715 0.01  0.5555555555555556 0.05714285714285715 0.01  0.6111111111111112 0.05714285714285715 0.01  0.6666666666666666 0.05714285714285715 0.01  0.7222222222222222 0.05714285714285715 0.01  0.7777777777777778 0.05714285714285715 0.01  0.8333333333333334 0.05714285714285715 0.01  0.8888888888888888 0.05714285714285715 0.01  0.9444444444444444 0.05714285714285715 0.01  1 0.05714285714285715 0.01  0 0.07142857142857142 0.01  0.05555555555555555 0.07142857142857142 0.01  0.1111111111111111 0.07142857142857142 0.01  0.1666666666666667 0.07142857142857142 0.01  0.2222222222222222 0.07142857142857142 0.01  0.2777777777777778 0.07142857142857142 0.01  0.3333333333333333 0.07142857142857142 0.01  0.3888888888888889 0.07142857142857142 0.01  0.4444444444444444 0.07142857142857142 0.01  0.5 0.07142857142857142 0.01  0.5555555555555556 0.07142857142857142 0.01  0.6111111111111112 0.07142857142857142 0.01  0.6666666666666666 0.07142857142857142 0.01  0.7222222222222222 0.07142857142857142 0.01  0.7777777777777778 0.07142857142857142 0.01  0.8333333333333334 0.07142857142857142 0.01  0.8888888888888888 0.07142857142857142 0.01  
[...]
<PointData  Vectors="f_33"> 
<DataArray  type="Float64"  Name="f_33"  NumberOfComponents="3" format="ascii">0.0000000000000000e+00 0.0000000000000000e+00 0.0000000000000000e+00  -7.7286158304959635e-04 -7.1445544556591448e-05 -1.0623643698810133e-03  -1.4445661170877839e-03 -5.3760445664652575e-05 -4.0614853425370049e-03  -2.0576240208225820e-03 -2.4628485926749290e-05 -8.8619769398661473e-03  -2.6123579031394734e-03 6.1938659953105906e-06 -1.5290928291053154e-02  -3.1095724526477748e-03 3.5388028600436161e-05 -2.3184454375309894e-02  -3.5500732579168992e-03 6.1829508352343341e-05 -3.2382267906710636e-02  -3.9350704582891373e-03 8.5128782846507239e-05 -4.2727517316212570e-02  -4.2662393599956763e-03 1.0517339430111708e-04 -5.4067593332684759e-02  -4.5457417996187651e-03 1.2196801940939485e-04 -6.6255272521732717e-02  -4.7762495058423279e-03 1.3557750634410009e-04 -7.9150033024373956e-02  -4.9609672823900134e-03 1.4610654304931034e-04 -9.2619479850563444e-02  -5.1036527944216684e-03 1.5369236408736340e-04 -1.0654084601600519e-01  -5.2086320368887511e-03 1.5850195354512003e-04 -1.2080254772669466e-01  -5.2808106743235522e-03 1.6073079856829142e-04 -1.3530577792464499e-01  -5.3256821432996577e-03 1.6060259277406806e-04 -1.4996612638861112e-01  -5.3493365627440542e-03 1.5837016412919975e-04 -1.6471521824923652e-01  -5.3584835636341158e-03 1.5431439954133246e-04 -1.7950238181855552e-01  -5.3604476714629711e-03 1.4875553167581525e-04 -1.9429652882257634e-01  0.0000000000000000e+00 0.0000000000000000e+00 0.0000000000000000e+00  -7.2770692858711210e-04 -3.2599065727624133e-05 -1.0929721238972692e-03  -1.4049422542625515e-03 -1.9225265818364786e-05 -4.0827862115118702e-03  -2.0216139405482957e-03 6.6412593827683975e-06 -8.8613650424683062e-03  -2.5798724173637590e-03 3.4275072393126039e-05 -1.5266149200259160e-02  -3.0805265548331812e-03 6.0331514688668057e-05 -2.3136141417461634e-02  -3.5243822658323530e-03 8.3700283254818582e-05 -3.2312021073837592e-02  -3.9126374315919870e-03 1.0401578048230204e-04 -4.2637281028012529e-02  -4.2469458798584580e-03 1.2119178864669328e-04 -5.3959433995537272e-02  -4.5294422887843157e-03 1.3526066354304443e-04 -6.6131288025538165e-02  -4.7627679939399436e-03 1.4631630020551478e-04 -7.9012309089091251e-02  -4.9500953522197558e-03 1.5449361352860659e-04 -9.2470063007255160e-02  -5.0951480928730511e-03 1.5996098953763278e-04 -1.0638172212598469e-01  -5.2022171068852163e-03 1.6291722311112341e-04 -1.2063562195880426e-01  -5.2761719981491168e-03 1.6358998482327478e-04 -1.3513285463936001e-01  -5.3224690519543963e-03 1.6223515340054728e-04 -1.4978888796939990e-01  -5.3471581260322214e-03 1.5913708427959421e-04 -1.6453520095428861e-01  -5.3569048328784606e-03 1.5460358535105995e-04 -1.7932094019498496e-01  -5.3590964254732736e-03 1.4890187996357976e-04 -1.9411475350132040e-01  0.0000000000000000e+00 0.0000000000000000e+00 0.0000000000000000e+00  -7.1476034295740222e-04 -3.1725116743829571e-06 -1.1042398703415047e-03  -1.3884957320644499e-03 1.3918398864190419e-05 -4.0822097480403543e-03  -2.0055131613451503e-03 3.8555666828048182e-05 -8.8397363424430556e-03  -2.5648531932104339e-03 6.3624928584213767e-05 -1.5222183735311845e-02  -3.0667915515755575e-03 8.6685764898918619e-05 -2.3070665419244064e-02  -3.5119847985987476e-03 1.0695995224894440e-04 -3.2226651423369321e-02  -3.9015771223605703e-03 1.2421157913931056e-04 -4.2533922968701343e-02  -4.2371966063063189e-03 1.3841743934411911e-04 -5.3840085315755654e-02  -4.5209607111971455e-03 1.4965123826802892e-04 -6.5997955574763109e-02  -4.7554962226750014e-03 1.5804141854141381e-04 -7.8866966793098139e-02  -4.9439615241407622e-03 1.6375566504360799e-04 -9.2314624958256486e-02  -5.0900661417861755e-03 1.6699499607695804e-04 -1.0621802080129637e-01  -5.1980862278531593e-03 1.6799112509781986e-04 -1.2046538787877553e-01  -5.2728759748442450e-03 1.6700484087540506e-04 -1.3495769610474986e-01  -5.3198752015049932e-03 1.6432486187647872e-04 -1.4961027022927648e-01  -5.3451142124851568e-03 1.6026731992196001e-04 -1.6435442384203564e-01  -5.3552310640168875e-03 1.5517025119029555e-04 -1.7913911066640811e-01  -5.3575876561346896e-03 1.4929713865961591e-04 -1.9393272896914504e-01  0.0000000000000000e+00 0.0000000000000000e+00 0.0000000000000000e+00  -7.0748348206670607e-04 2.1610850893827672e-05 -1.0996609417368195e-03  -1.3775505866042532e-03 4.5228434635820147e-05 -4.0592201625820118e-03  -1.9944760867708633e-03 7.0291887632464324e-05 -8.7955412289212782e-03  -2.5544803948250368e-03 9.3403695481787693e-05 -1.5157111627098150e-02  -3.0572383168711078e-03 1.1366981176761425e-04 -2.2986096960989306e-02  -3.5032891060513697e-03 1.3089086209232986e-04 -3.2124360753024619e-02  -3.8937419363411878e-03 1.4505963767840599e-04 -4.2415825392620822e-02  -4.2302084427398856e-03 1.5625368274806503e-04 -5.3708124287125528e-02  -4.5147949782988082e-03 1.6460238562457580e-04 -6.5854046941289129e-02  -4.7501189226229505e-03 1.7027434550028977e-04 -7.8712966171947563e-02  -4.9393296051191598e-03 1.7347236324460387e-04 -9.2152303767970151e-02  -5.0861272751715498e-03 1.7443122165734500e-04 -1.0604904519896852e-01  -5.1947783364390474e-03 1.7341624254875004e-04 -1.2029129844108863e-01  -5.2701266425230018e-03 1.7072186026375019e-04 -1.3477988750318798e-01  -5.3176008960677812e-03 1.6667004831907699e-04 -1.4942997068938141e-01  -5.3432180740890182e-03 1.6160909525489434e-04 -1.6417267424529103e-01  -5.3535944544311331e-03 1.5590947557744320e-04 -1.7895674122131985e-01  -5.3560639095899254e-03 1.4987449221618050e-04 -1.9375030764354079e-01  0.0000000000000000e+00 0.0000000000000000e+00 0.0000000000000000e+00  -6.9914390796597394e-04 4.5030691443029048e-05 -1.0805392643621393e-03  -1.3671454971163710e-03 7.5611238543371042e-05 -4.0149233617760415e-03  -1.9845990345775948e-03 1.0178616780530534e-04 -8.7289147959465074e-03  -2.5454457160008870e-03 1.2329448054452122e-04 -1.5070703891290869e-02  -3.0490177107454801e-03 1.4090657411394952e-04 -2.2882078148266181e-02  -3.4958501979968390e-03 1.5511830201946005e-04 -3.2004762586758252e-02  -3.8870612341809947e-03 1.6620746657619074e-04 -4.2282613972581831e-02  -4.2242621661172514e-03 1.7437646949856360e-04 -5.3563204313378542e-02  -4.5095546802645355e-03 1.7982012147682450e-04 -6.5699248716094324e-02  -4.7455496937657384e-03 1.8275103437404949e-04 -7.8550028354343701e-02  -4.9353891409160879e-03 1.8340867110965331e-04 -9.1982854689961313e-02  -5.0827652024858358e-03 1.8206223976873222e-04 -1.0587458340829135e-01  -5.1919356072687231e-03 1.7901100827467099e-04 -1.2011317272540112e-01  -5.2677349503862164e-03 1.7458331650216719e-04 -1.3459927658573531e-01  -5.3155822212603626e-03 1.6913472748366680e-04 -1.4924786288776054e-01  -5.3414839056984808e-03 1.6304618584487909e-04 -1.6398984760518695e-01  -5.3520394990817467e-03 1.5672280108046591e-04 -1.7877374257898607e-01  -5.3545687359919042e-03 1.5053928185585708e-04 -1.9356741597464611e-01  0.0000000000000000e+00 0.0000000000000000e+00 0.0000000000000000e+00  -6.8714275689433547e-04 6.9845612966385596e-05 -1.0462277206059124e-03  -1.3547874721486512e-03 1.0654344865642080e-04 -3.9492116938399414e-03  -1.9737054108576904e-03 1.3357348521855192e-04 -8.6398016460330143e-03  -2.5358010783884835e-03 1.5342899583811140e-04 -1.4962832126391353e-02  -3.0403944468766625e-03 1.6837871379808919e-04 -2.2758438002911403e-02  -3.4881419895729090e-03 1.7957069535491191e-04 -3.1867676529837387e-02  -3.8802126277607827e-03 1.8756370446212564e-04 -4.2134116051386103e-02  -4.2182317339848254e-03 1.9268726534895571e-04 -5.3405167890559699e-02  -4.5043010590247717e-03 1.9520340778181837e-04 -6.5533421406577905e-02  -4.7410261781113770e-03 1.9536969477854221e-04 -7.8378032740027900e-02  -4.9315413393401647e-03 1.9346272186774707e-04 -9.1806176015941529e-02  -5.0795298192320443e-03 1.8978639150249663e-04 -1.0569455216390204e-01  -5.1892396397456540e-03 1.8467412086889569e-04 -1.1993094516548686e-01  -5.2654950590343462e-03 1.7848839631250650e-04 -1.3441581445635653e-01  -5.3137044445222921e-03 1.7161884456747201e-04 -1.4906391309017814e-01  -5.3398645516543088e-03 1.6447986393143348e-04 -1.6380592272431854e-01  -5.3505620409757251e-03 1.5751344455008418e-04 -1.7859010174272502e-01  -5.3531140264859965e-03 1.5118805509032417e-04 -1.9338404875993093e-01  0.0000000000000000e+00 0.0000000000000000e+00 0.0000000000000000e+00  -6.6788135853535077e-04 9.8410202884133743e-05 -9.9360489105762171e-04  -1.3364025198104143e-03 1.3941925429658469e-04 -3.8604081594510870e-03  -1.9577238090251674e-03 1.6631843185434226e-04 -8.5273777086019211e-03  -2.5216742015428130e-03 1.8409364806736654e-04 -1.4832965666749978e-02  -3.0278151347993402e-03 1.9620546327085603e-04 -2.2614772788066888e-02  -3.4769758310537928e-03 2.0429377885352118e-04 -3.1712776073347014e-02  -3.8703841663533397e-03 2.0913865540668884e-04 -4.1970065921997778e-02  -4.2096791468423361e-03 2.1117594852839246e-04 -5.3233803260045259e-02  -4.4969597458888377e-03 2.1072770176738074e-04 -6.5356403078147773e-02  -4.7348222673505103e-03 2.0809396950134725e-04 -7.8196863663473518e-02  -4.9263887752546039e-03 2.0358773079698830e-04 -9.1622194632203502e-02  -5.0753288374884168e-03 1.9754746771205716e-04 -1.0550891676032999e-01  -5.1858757945041096e-03 1.9034088256200408e-04 -1.1974461478581462e-01  -5.2628384954783438e-03 1.8236489633824388e-04 -1.3422952858055817e-01  -5.3116094755011490e-03 1.7404380118803126e-04 -1.4887817107058840e-01  -5.3381716172231693e-03 1.6582649075318217e-04 -1.6362096392924069e-01  -5.3490998184082244e-03 1.5819159960120703e-04 -1.7840588754033898e-01  -5.3516942559446003e-03 1.5172045884149525e-04 -1.9320027014790953e-01  0.0000000000000000e+00 0.0000000000000000e+00 0.0000000000000000e+00  -6.2658566899200191e-04 1.2880731920070871e-04 -9.2123432652006494e-04  -1.2956203753924989e-03 1.7239400920167260e-04 -3.7488251336682027e-03  -1.9206236050155632e-03 1.9821255320024486e-04 -8.3928627451555406e-03  -2.4880364552364274e-03 2.1355582999899671e-04 -1.4682580470683635e-02  -2.9975803452304568e-03 2.2278572920060604e-04 -2.2452580245478415e-02  -3.4500995645020361e-03 2.2785043161524927e-04 -3.1541488456861166e-02  -3.8467953531428883e-03 2.2967156811735384e-04 -4.1791785176141828e-02  -4.1892761330433416e-03 2.2875882055168061e-04 -5.3050313333697016e-02  -4.4796103562028643e-03 2.2548082263781032e-04 -6.5169273750955270e-02  -4.7203630249815524e-03 2.2017401431326998e-04 -7.8007477899560945e-02  -4.9146236622184128e-03 2.1318440659970833e-04 -9.1431745763253983e-02  -5.0660280236292958e-03 2.0488272728365491e-04 -1.0531839398548656e-01  -5.1787744753286798e-03 1.9566899908543284e-04 -1.1955478427088898e-01  -5.2576358735666332e-03 1.8597277469219707e-04 -1.3404091303024371e-01  -5.3079680091742392e-03 1.7625143145177797e-04 -1.4869102888139113e-01  -5.3357167929549915e-03 1.6698830600531291e-04 -1.6343526830749888e-01  -5.3474358000041300e-03 1.5868942875863883e-04 -1.7822129650888721e-01  -5.3503118137919574e-03 1.5207605465346216e-04 -1.9301617061299164e-01  0.0000000000000000e+00 0.0000000000000000e+00 0.0000000000000000e+00  -3.7562802706832396e-04 -4.4065270304652704e-05 -1.0294881412853147e-03  -7.1490022447443468e-04 -3.3277786610370942e-05 -4.0310883571735108e-03  -1.0233780472925196e-03 -2.0449385502151926e-05 -8.8340788873754843e-03  -1.3027984631002881e-03 -7.2025390060936009e-06 -1.5265636883130941e-02  -1.5535503008987485e-03 4.9933508969967927e-06 -2.3161788404668340e-02  -1.7759586314222305e-03 1.5612444286398763e-05 -3.2362205762178790e-02  -1.9705814846803582e-03 2.4481540067153242e-05 -4.2710007112622995e-02  -2.1382269261817203e-03 3.1567086023163180e-05 -5.4052557894688019e-02  -2.2799528341044032e-03 3.6896090495259405e-05 -6.6242610771180779e-02  -2.3970739652619047e-03 4.0527776484007761e-05 -7.9139619727467206e-02  -2.4911720381818694e-03 4.2543342907028607e-05 -9.2611164871125667e-02  -2.5641053122054777e-03 4.3041947067107141e-05 -1.0653445353899725e-01  -2.6180164079943565e-03 4.2138677725471753e-05 -1.2079787560079049e-01  -2.6553381703142138e-03 3.9963115202191953e-05 -1.3530259714130233e-01  -2.6787979949514898e-03 3.6658194867424294e-05 -1.4996418063899467e-01  -2.6914225096217599e-03 3.2378823025921714e-05 -1.6471422315642720e-01  -2.6965479229784117e-03 2.7282907536966412e-05 -1.7950202211279845e-01  -2.6977887820611459e-03 2.1522988387828811e-05 -1.9429637062843197e-01  0.0000000000000000e+00 0.0000000000000000e+00 0.0000000000000000e+00  -3.5759793504163892e-04 -1.8700814027860469e-05 -1.0572420984164531e-03  -7.0289415040733353e-04 -1.2515470326432487e-05 -4.0524919866671604e-03  -1.0125637845716251e-03 -1.5728651604946825e-06 -8.8338158630535801e-03  -1.2930482213620665e-03 9.8066430579354573e-06 -1.5241248067984617e-02  -1.5447648800559401e-03 2.0147389254042992e-05 -2.3113840475446183e-02  -1.7680837031406880e-03 2.8938904430644360e-05 -3.2292278720825213e-02  -1.9635793151501334e-03 3.6026701155362886e-05 -4.2620039982042002e-02  -2.1320620578626627e-03 4.1394618236608972e-05 -5.3944617194553832e-02  -2.2745855271527698e-03 4.5086716152562072e-05 -6.6118796929684850e-02  -2.3924573628269713e-03 4.7179622175248716e-05 -7.9002022304848929e-02  -2.4872507967424523e-03 4.7772488210129017e-05 -9.2461835128227116e-02  -2.5608147602674009e-03 4.6982941082029326e-05 -1.0637538280738941e-01  -2.6152818967485583e-03 4.4944946627498795e-05 -1.2063097520962889e-01  -2.6530744979743558e-03 4.1807237599354337e-05 -1.3512967829590677e-01  -2.6769086352919952e-03 3.7732062368904797e-05 -1.4978693331716353e-01  -2.6897974718135187e-03 3.2893754812823700e-05 -1.6453419227371732e-01  -2.6950615727828176e-03 2.7469084124324180e-05 -1.7932057162500989e-01  -2.6963730072510415e-03 2.1590318682908321e-05 -1.9411463123067205e-01  0.0000000000000000e+00 0.0000000000000000e+00 0.0000000000000000e+00  -3.5008128304452654e-04 -1.8723049081257074e-06 -1.0680318499876142e-03  -6.9389188020850534e-04 5.5302884386850947e-06 -4.0511367769525651e-03  -1.0040643842117577e-03 1.5629730516678198e-05 -8.8120326232265043e-03  -1.2851379796523970e-03 2.5559864636282575e-05 -1.5197328755882453e-02  -1.5374865199535071e-03 3.4274198204240907e-05 -2.3048472834451418e-02  -1.7614427610757623e-03 4.1402530985218415e-05 -3.2207030727686485e-02  -1.9575687308617225e-03 4.6848498687496621e-05 -4.2516799995985510e-02  -2.1266679367540550e-03 5.0625802561717906e-05 -5.3825377269913842e-02  -2.2697879009282687e-03 5.2799240178512224e-05 -6.5985562230492428e-02  -2.3882301315531107e-03 5.3463393896487225e-05 -7.8856766631826836e-02  -2.4835614397057870e-03 5.2734732246528732e-05 -9.2306473114106627e-02  -2.5576239153879007e-03 5.0748246456069951e-05 -1.0621174781092496e-01  -2.6125428606579219e-03 4.7655475272774448e-05 -1.2046079885518753e-01  -2.6507326576896790e-03 4.3622870735677663e-05 -1.3495457016421419e-01  -2.6749005770487105e-03 3.8830339011223247e-05 -1.4960836010578318e-01  -2.6880485173212685e-03 3.3469768050924639e-05 -1.6435345556616843e-01  -2.6934811133355789e-03 2.7736802577001019e-05 -1.7913878078286724e-01  -2.6948781964452979e-03 2.1768062818388541e-05 -1.9393265561186077e-01  0.0000000000000000e+00 0.0000000000000000e+00 0.0000000000000000e+00  -3.4589912097989027e-04 1.1649196937116273e-05 -1.0632527215302919e-03  -6.8753183977234900e-04 2.1772301771358550e-05 -4.0277072969710798e-03  -9.9778018049040472e-04 3.1906717191171390e-05 -8.7676426560298892e-03  -1.2792204137620747e-03 4.0797751034781135e-05 -1.5132213236914542e-02  -1.5319861950677427e-03 4.8065414939556112e-05 -2.2963922258020152e-02  -1.7563656384917855e-03 5.3624991512902808e-05 -3.2104778806820972e-02  -1.9529122031381790e-03 5.7491466699065789e-05 -4.2398745934053246e-02  -2.1224252197332150e-03 5.9727337323048223e-05 -5.3693458539521607e-02  -2.2659483308622311e-03 6.0424657185151184e-05 -6.5841692624823936e-02  -2.3847790102902093e-03 5.9698052359094975e-05 -7.8702801226275196e-02  -2.4804797657181688e-03 5.7681761500678784e-05 -9.2144183392875778e-02  -2.5548880060405634e-03 5.4527974606208510e-05 -1.0604280026842208e-01  -2.6101238873020819e-03 5.0405396170819169e-05 -1.2028673455430663e-01  -2.6485961070237818e-03 4.5497672783993665e-05 -1.3477678436713494e-01  -2.6730055345576568e-03 4.0001687404291975e-05 -1.4942808172802147e-01  -2.6863458335762438e-03 3.4126000182423749e-05 -1.6417172645337749e-01  -2.6919080592628366e-03 2.8085821379448431e-05 -1.7895643313703921e-01  -2.6933655881879381e-03 2.2047651042949417e-05 -1.9375026546852786e-01  0.0000000000000000e+00 0.0000000000000000e+00 0.0000000000000000e+00  -3.4153949125997451e-04 2.4200452647727808e-05 -1.0444495443777085e-03  -6.8172137702972476e-04 3.7220579006403274e-05 -3.9833438706907195e-03  -9.9217169031045726e-04 4.7797407402390337e-05 -8.7009225514028642e-03  -1.2740219982386315e-03 5.5862513474281948e-05 -1.5045773467915375e-02  -1.5271783508689577e-03 6.1783545126965555e-05 -2.2859907443077646e-02  -1.7519295738403651e-03 6.5821024826531082e-05 -3.1985198135333306e-02  -1.9488367063454919e-03 6.8132502776189284e-05 -4.2265554982663767e-02  -2.1187006087695463e-03 6.8842168892470853e-05 -5.3548557805355688e-02  -2.2625634148670699e-03 6.8074311897406488e-05 -6.5686910921914476e-02  -2.3817197916946899e-03 6.5965410958673392e-05 -7.8539876833204375e-02  -2.4777287465593914e-03 6.2668056493790688e-05 -9.1974744724488314e-02  -2.5524236609515603e-03 5.8351746292741368e-05 -1.0586834617181669e-01  -2.6079201549515998e-03 5.3202279815366024e-05 -1.2010861424350371e-01  -2.6466218648415240e-03 4.7420366660136880e-05 -1.3459617709084568e-01  -2.6712241427625551e-03 4.1219703005270770e-05 -1.4924597641515644e-01  -2.6847144800127855e-03 3.4825217626972696e-05 -1.6398890198211946e-01  -2.6903732160262306e-03 2.8472491172092163e-05 -1.7877343841504212e-01  -2.6918638254081135e-03 2.2377330163380701e-05 -1.9356738471808385e-01  0.0000000000000000e+00 0.0000000000000000e+00 0.0000000000000000e+00  -3.3545167950220083e-04 3.7524638032669756e-05 -1.0112244116079552e-03  -6.7495119066624258e-04 5.2881103744328961e-05 -3.9180597669780434e-03  -9.8598183628283045e-04 6.3809633433757593e-05 -8.6120039358927227e-03  -1.2684097622372755e-03 7.1039968310474767e-05 -1.4938045324100598e-02  -1.5220486194948287e-03 7.5619044286952058e-05 -2.2736391721570944e-02  -1.7472393897579536e-03 7.8133994749752112e-05 -3.1848220013680380e-02  -1.9445647100579291e-03 7.8884909960945244e-05 -4.2117147899754626e-02  -2.1148306973646216e-03 7.8059918734787309e-05 -5.3390595038126133e-02  -2.2590789457143856e-03 7.5816893506549938e-05 -6.5521140660428065e-02  -2.3786013239150481e-03 7.2314792074129510e-05 -7.8367922685571731e-02  -2.4749529513437641e-03 6.7724829960293448e-05 -9.1798093283926283e-02  -2.5499626300889660e-03 6.2233938378456534e-05 -1.0568832954213292e-01  -2.6057408292294174e-03 5.6045084923555245e-05 -1.1992639054322080e-01  -2.6446854994061080e-03 4.9376127924593739e-05 -1.3441271018202514e-01  -2.6694860164769179e-03 4.2457762703377198e-05 -1.4906201554632864e-01  -2.6831246078789458e-03 3.5531363508899443e-05 -1.6380496226931412e-01  -2.6888736236434954e-03 2.8853115190616892e-05 -1.7858978292847330e-01  -2.6903812719165456e-03 2.2701729542459092e-05 -1.9338400675648559e-01  0.0000000000000000e+00 0.0000000000000000e+00 0.0000000000000000e+00  -3.2639159437891841e-04 5.3683865749824479e-05 -9.6078459773335447e-04  -6.6558557573439950e-04 7.0115023636823729e-05 -3.8303847185017807e-03  -9.7752574423238549e-04 8.0837905500003238e-05 -8.5002891575460850e-03  -1.2607417896712853e-03 8.6967372689830124e-05 -1.4808708236894829e-02  -1.5150681999983916e-03 9.0066803953208722e-05 -2.2593150978857564e-02  -1.7409092575146022e-03 9.0968770943263995e-05 -3.1693667534606597e-02  -1.9388631812001266e-03 9.0085393331107053e-05 -4.1953381223455682e-02  -2.1097366284474135e-03 8.7658790735762113e-05 -5.3219455792945319e-02  -2.2545676152931336e-03 8.3877407816552551e-05 -6.5344294527698618e-02  -2.3746428391012105e-03 7.8921987153