<?xml version="1.0"?>
<VTKFile type="UnstructuredGrid"  version="0.1"  >
<UnstructuredGrid>
<Piece  NumberOfPoints="760" NumberOfCells="3024">
<Points>
<DataArray  type="Float64"  NumberOfComponents="3"  format="ascii">0 0 0  0.05555555555555555 0 0  0.1111111111111111 0 0  0.1666666666666667 0 0  0.2222222222222222 0 0  0.2777777777777778 0 0  0.3333333333333333 0 0  0.3888888888888889 0 0  0.4444444444444444 0 0  0.5 0 0  0.5555555555555556 0 0  0.6111111111111112 0 0  0.6666666666666666 0 0  0.7222222222222222 0 0  0.7777777777777778 0 0  0.8333333333333334 0 0  0.8888888888888888 0 0  0.9444444444444444 0 0  1 0 0  0 0.01428571428571429 0  0.05555555555555555 0.01428571428571429 0  0.1111111111111111 0.01428571428571429 0  0.1666666666666667 0.01428571428571429 0  0.2222222222222222 0.01428571428571429 0  0.2777777777777778 0.01428571428571429 0  0.3333333333333333 0.01428571428571429 0  0.3888888888888889 0.01428571428571429 0  0.4444444444444444 0.01428571428571429 0  0.5 0.01428571428571429 0  0.5555555555555556 0.01428571428571429 0  0.6111111111111112 0.01428571428571429 0  0.6666666666666666 0.01428571428571429 0  0.7222222222222222 0.01428571428571429 0  0.7777777777777778 0.01428571428571429 0  0.8333333333333334 0.01428571428571429 0  0.8888888888888888 0.01428571428571429 0  0.9444444444444444 0.01428571428571429 0  1 0.01428571428571429 0  0 0.02857142857142857 0  0.05555555555555555 0.02857142857142857 0  0.1111111111111111 0.02857142857142857 0  0.1666666666666667 0.02857142857142857 0  0.2222222222222222 0.02857142857142857 0  0.2777777777777778 0.02857142857142857 0  0.3333333333333333 0.02857142857142857 0  0.3888888888888889 0.02857142857142857 0  0.4444444444444444 0.02857142857142857 0  0.5 0.02857142857142857 0  0.5555555555555556 0.02857142857142857 0  0.6111111111111112 0.02857142857142857 0  0.6666666666666666 0.02857142857142857 0  0.7222222222222222 0.02857142857142857 0  0.7777777777777778 0.02857142857142857 0  0.8333333333333334 0.02857142857142857 0  0.8888888888888888 0.02857142857142857 0  0.9444444444444444 0.02857142857142857 0  1 0.02857142857142857 0  0 0.04285714285714286 0  0.05555555555555555 0.04285714285714286 0  0.1111111111111111 0.04285714285714286 0  0.1666666666666667 0.04285714285714286 0  0.2222222222222222 0.04285714285714286 0  0.2777777777777778 0.04285714285714286 0  0.3333333333333333 0.04285714285714286 0  0.3888888888888889 0.04285714285714286 0  0.4444444444444444 0.04285714285714286 0  0.5 0.04285714285714286 0  0.5555555555555556 0.04285714285714286 0  0.6111111111111112 0.04285714285714286 0  0.6666666666666666 0.04285714285714286 0  0.7222222222222222 0.04285714285714286 0  0.7777777777777778 0.04285714285714286 0  0.8333333333333334 0.04285714285714286 0  0.8888888888888888 0.04285714285714286 0  0.9444444444444444 0.04285714285714286 0  1 0.04285714285714286 0  0 0.05714285714285715 0  0.05555555555555555 0.05714285714285715 0  0.1111111111111111 0.05714285714285715 0  0.1666666666666667 0.05714285714285715 0  0.2222222222222222 0.05714285714285715 0  0.2777777777777778 0.05714285714285715 0  0.3333333333333333 0.05714285714285715 0  0.3888888888888889 0.05714285714285715 0  0.4444444444444444 0.05714285714285715 0  0.5 0.05714285714285715 0  0.5555555555555556 0.05714285714285715 0  0.6111111111111112 0.05714285714285715 0  0.6666666666666666 0.05714285714285715 0  0.7222222222222222 0.05714285714285715 0  0.7777777777777778 0.05714285714285715 0  0.8333333333333334 0.05714285714285715 0  0.8888888888888888 0.05714285714285715 0  0.9444444444444444 0.05714285714285715 0  1 0.05714285714285715 0  0 0.07142857142857142 0  0.05555555555555555 0.07142857142857142 0  0.1111111111111111 0.07142857142857142 0  0.1666666666666667 0.07142857142857142 0  0.2222222222222222 0.07142857142857142 0  0.2777777777777778 0.07142857142857142 0  0.3333333333333333 0.07142857142857142 0  0.3888888888888889 0.07142857142857142 0  0.4444444444444444 0.07142857142857142 0  0.5 0.07142857142857142 0  0.5555555555555556 0.07142857142857142 0  0.6111111111111112 0.07142857142857142 0  0.6666666666666666 0.07142857142857142 0  0.7222222222222222 0.07142857142857142 0  0.7777777777777778 0.07142857142857142 0  0.8333333333333334 0.07142857142857142 0  0.8888888888888888 0.07142857142857142 0  0.9444444444444444 0.07142857142857142 0  1 0.07142857142857142 0  0 0.08571428571428573 0  0.05555555555555555 0.08571428571428573 0  0.1111111111111111 0.08571428571428573 0  0.1666666666666667 0.08571428571428573 0  0.2222222222222222 0.08571428571428573 0  0.2777777777777778 0.08571428571428573 0  0.3333333333333333 0.08571428571428573 0  0.3888888888888889 0.08571428571428573 0  0.4444444444444444 0.08571428571428573 0  0.5 0.08571428571428573 0  0.5555555555555556 0.08571428571428573 0  0.6111111111111112 0.08571428571428573 0  0.6666666666666666 0.08571428571428573 0  0.7222222222222222 0.08571428571428573 0  0.7777777777777778 0.08571428571428573 0  0.8333333333333334 0.08571428571428573 0  0.8888888888888888 0.08571428571428573 0  0.9444444444444444 0.08571428571428573 0  1 0.08571428571428573 0  0 0.1 0  0.05555555555555555 0.1 0  0.1111111111111111 0.1 0  0.1666666666666667 0.1 0  0.2222222222222222 0.1 0  0.2777777777777778 0.1 0  0.3333333333333333 0.1 0  0.3888888888888889 0.1 0  0.4444444444444444 0.1 0  0.5 0.1 0  0.5555555555555556 0.1 0  0.6111111111111112 0.1 0  0.6666666666666666 0.1 0  0.7222222222222222 0.1 0  0.7777777777777778 0.1 0  0.8333333333333334 0.1 0  0.8888888888888888 0.1 0  0.9444444444444444 0.1 0  1 0.1 0  0 0 0.01  0.05555555555555555 0 0.01  0.1111111111111111 0 0.01  0.1666666666666667 0 0.01  0.2222222222222222 0 0.01  0.2777777777777778 0 0.01  0.3333333333333333 0 0.01  0.3888888888888889 0 0.01  0.4444444444444444 0 0.01  0.5 0 0.01  0.5555555555555556 0 0.01  0.6111111111111112 0 0.01  0.6666666666666666 0 0.01  0.7222222222222222 0 0.01  0.7777777777777778 0 0.01  0.8333333333333334 0 0.01  0.8888888888888888 0 0.01  0.9444444444444444 0 0.01  1 0 0.01  0 0.01428571428571429 0.01  0.05555555555555555 0.01428571428571429 0.01  0.1111111111111111 0.01428571428571429 0.01  0.1666666666666667 0.01428571428571429 0.01  0.2222222222222222 0.01428571428571429 0.01  0.2777777777777778 0.01428571428571429 0.01  0.3333333333333333 0.01428571428571429 0.01  0.3888888888888889 0.01428571428571429 0.01  0.4444444444444444 0.01428571428571429 0.01  0.5 0.01428571428571429 0.01  0.5555555555555556 0.01428571428571429 0.01  0.6111111111111112 0.01428571428571429 0.01  0.6666666666666666 0.01428571428571429 0.01  0.7222222222222222 0.01428571428571429 0.01  0.7777777777777778 0.01428571428571429 0.01  0.8333333333333334 0.01428571428571429 0.01  0.8888888888888888 0.01428571428571429 0.01  0.9444444444444444 0.01428571428571429 0.01  1 0.01428571428571429 0.01  0 0.02857142857142857 0.01  0.05555555555555555 0.02857142857142857 0.01  0.1111111111111111 0.02857142857142857 0.01  0.1666666666666667 0.02857142857142857 0.01  0.2222222222222222 0.02857142857142857 0.01  0.2777777777777778 0.02857142857142857 0.01  0.3333333333333333 0.02857142857142857 0.01  0.3888888888888889 0.02857142857142857 0.01  0.4444444444444444 0.02857142857142857 0.01  0.5 0.02857142857142857 0.01  0.5555555555555556 0.02857142857142857 0.01  0.6111111111111112 0.02857142857142857 0.01  0.6666666666666666 0.02857142857142857 0.01  0.7222222222222222 0.02857142857142857 0.01  0.7777777777777778 0.02857142857142857 0.01  0.8333333333333334 0.02857142857142857 0.01  0.8888888888888888 0.02857142857142857 0.01  0.9444444444444444 0.02857142857142857 0.01  1 0.02857142857142857 0.01  0 0.04285714285714286 0.01  0.05555555555555555 0.04285714285714286 0.01  0.1111111111111111 0.04285714285714286 0.01  0.1666666666666667 0.04285714285714286 0.01  0.2222222222222222 0.04285714285714286 0.01  0.2777777777777778 0.04285714285714286 0.01  0.3333333333333333 0.04285714285714286 0.01  0.3888888888888889 0.04285714285714286 0.01  0.4444444444444444 0.04285714285714286 0.01  0.5 0.04285714285714286 0.01  0.5555555555555556 0.04285714285714286 0.01  0.6111111111111112 0.04285714285714286 0.01  0.6666666666666666 0.04285714285714286 0.01  0.7222222222222222 0.04285714285714286 0.01  0.7777777777777778 0.04285714285714286 0.01  0.8333333333333334 0.04285714285714286 0.01  0.8888888888888888 0.04285714285714286 0.01  0.9444444444444444 0.04285714285714286 0.01  1 0.04285714285714286 0.01  0 0.05714285714285715 0.01  0.05555555555555555 0.05714285714285715 0.01  0.1111111111111111 0.05714285714285715 0.01  0.1666666666666667 0.05714285714285715 0.01  0.2222222222222222 0.05714285714285715 0.01  0.2777777777777778 0.05714285714285715 0.01  0.3333333333333333 0.05714285714285715 0.01  0.3888888888888889 0.05714285714285715 0.01  0.4444444444444444 0.05714285714285715 0.01  0.5 0.05714285714285715 0.01  0.5555555555555556 0.05714285714285715 0.01  0.6111111111111112 0.05714285714285715 0.01  0.6666666666666666 0.05714285714285715 0.01  0.7222222222222222 0.05714285714285715 0.01  0.7777777777777778 0.05714285714285715 0.01  0.8333333333333334 0.05714285714285715 0.01  0.8888888888888888 0.05714285714285715 0.01  0.9444444444444444 0.05714285714285715 0.01  1 0.05714285714285715 0.01  0 0.07142857142857142 0.01  0.05555555555555555 0.07142857142857142 0.01  0.1111111111111111 0.07142857142857142 0.01  0.1666666666666667 0.07142857142857142 0.01  0.2222222222222222 0.07142857142857142 0.01  0.2777777777777778 0.07142857142857142 0.01  0.3333333333333333 0.07142857142857142 0.01  0.3888888888888889 0.07142857142857142 0.01  0.4444444444444444 0.07142857142857142 0.01  0.5 0.07142857142857142 0.01  0.5555555555555556 0.07142857142857142 0.01  0.6111111111111112 0.07142857142857142 0.01  0.6666666666666666 0.07142857142857142 0.01  0.7222222222222222 0.07142857142857142 0.01  0.7777777777777778 0.07142857142857142 0.01  0.8333333333333334 0.07142857142857142 0.01  0.8888888888888888 0.07142857142857142 0.01  
[...]
<PointData  Vectors="f_33"> 
<DataArray  type="Float64"  Name="f_33"  NumberOfComponents="3" format="ascii">0.0000000000000000e+00 0.0000000000000000e+00 0.0000000000000000e+00  -5.3490481543511049e-04 -5.4124016392077412e-05 -7.2553455337126288e-04  -1.0002796183400647e-03 -5.4917977622254075e-05 -2.7716814385734027e-03  -1.4250829972926864e-03 -5.5669381508598339e-05 -6.0464013321353104e-03  -1.8094240304057172e-03 -6.2412364562666810e-05 -1.0431557269698414e-02  -2.1538401495259309e-03 -7.6716977788421101e-05 -1.5815152314228118e-02  -2.4588969926150044e-03 -9.8659133821650828e-05 -2.2087665140344156e-02  -2.7254463307210654e-03 -1.2782437962749197e-04 -2.9141953812111439e-02  -2.9546643166460072e-03 -1.6362432649153096e-04 -3.6873814886058995e-02  -3.1480653406519964e-03 -2.0541080859663027e-04 -4.5182769222629558e-02  -3.3075173013367280e-03 -2.5252059263124437e-04 -5.3972962125351236e-02  -3.4352565704659755e-03 -3.0429565793360110e-04 -6.3154134700768305e-02  -3.5339005317417474e-03 -3.6009503970137722e-04 -7.2642643213512312e-02  -3.6064571565533254e-03 -4.1930398825501270e-04 -8.2362511578431705e-02  -3.6563318259572658e-03 -4.8134238093503373e-04 -9.2246506532229586e-02  -3.6873320696401623e-03 -5.4567272385843541e-04 -1.0223722787276718e-01  -3.7036729713062076e-03 -6.1180745997019813e-04 -1.1228820878539025e-01  -3.7099922026250843e-03 -6.7931781387150928e-04 -1.2236503414120879e-01  -3.7113501374947014e-03 -7.4783822048826742e-04 -1.3244660068528230e-01  0.0000000000000000e+00 0.0000000000000000e+00 0.0000000000000000e+00  -5.0168666620110350e-04 -2.7110722651036623e-05 -7.4630134303943333e-04  -9.6887213336438872e-04 -3.0880895263757051e-05 -2.7860610305370753e-03  -1.3942494766199165e-03 -3.3900688235007488e-05 -6.0458353142261896e-03  -1.7792651069032243e-03 -4.2864494337230894e-05 -1.0414512964201312e-02  -2.1244730781536671e-03 -5.9355209377152630e-05 -1.5782065559583967e-02  -2.4304386824297568e-03 -8.3437813451059652e-05 -2.2039630966164840e-02  -2.6980018595899290e-03 -1.1468101585517265e-04 -2.9080301992641586e-02  -2.9283192781265981e-03 -1.5247812278294085e-04 -3.6799957958356902e-02  -3.1228806227404250e-03 -1.9616171264584089e-04 -4.5098140514337900e-02  -3.2835253986372047e-03 -2.4504839835787565e-04 -5.3878985788845798e-02  -3.4124585778068420e-03 -2.9845924355878636e-04 -6.3052207146647846e-02  -3.5122634154793812e-03 -3.5573178325895430e-04 -7.2534118377972454e-02  -3.5859111513379190e-03 -4.1622936241819257e-04 -8.2248687245913429e-02  -3.6367678949010213e-03 -4.7934973821082435e-04 -9.2128610657919163e-02  -3.6685992045887798e-03 -5.4453333187966973e-04 -1.0211640424971499e-01  -3.6855740429515122e-03 -6.1127102212528894e-04 -1.1216550073462485e-01  -3.6922788223662287e-03 -6.7911571992405829e-04 -1.2224136041415605e-01  -3.6937888549239462e-03 -7.4773629258049557e-04 -1.3232270022681183e-01  0.0000000000000000e+00 0.0000000000000000e+00 0.0000000000000000e+00  -4.9067366423785001e-04 -6.6960230610820949e-06 -7.5377873103007304e-04  -9.5342260306588130e-04 -7.9324324848727482e-06 -2.7854654050064949e-03  -1.3771335198211139e-03 -1.1827453529104431e-05 -6.0308849421352555e-03  -1.7611465271536340e-03 -2.2574098365413543e-05 -1.0384340555080713e-02  -2.1056654391860339e-03 -4.1140808050837020e-05 -1.5737237979770582e-02  -2.4111533598561289e-03 -6.7365759977500679e-05 -2.1981254151818369e-02  -2.6784101793298292e-03 -1.0072888465568886e-04 -2.9009678335960378e-02  -2.9085701889429759e-03 -1.4058019244905342e-04 -3.6718452452751175e-02  -3.1031051552979400e-03 -1.8622377664520305e-04 -4.5007123590487565e-02  -3.2638369770552483e-03 -2.3695245369793276e-04 -5.3779804525644515e-02  -3.3929517727649809e-03 -2.9206475762600910e-04 -6.2946166822462651e-02  -3.4930120394904593e-03 -3.5087584309115332e-04 -7.2422467576352886e-02  -3.5669660551229279e-03 -4.1272653202886354e-04 -8.2132604000652282e-02  -3.6181545947569101e-03 -4.7699196882595112e-04 -9.2009188710108852e-02  -3.6503151844919442e-03 -5.4309019286546544e-04 -1.0199463897163773e-01  -3.6675846366569617e-03 -6.1049050400685252e-04 -1.1204227406255354e-01  -3.6745097340964861e-03 -6.7872547624385883e-04 -1.2211742240437959e-01  -3.6761247766775203e-03 -7.4746487563698066e-04 -1.3219863128292869e-01  0.0000000000000000e+00 0.0000000000000000e+00 0.0000000000000000e+00  -4.8363988472082797e-04 1.0377305337559887e-05 -7.5043255336509213e-04  -9.4179982992986311e-04 1.3606682727476343e-05 -2.7695646278124257e-03  -1.3635314788168133e-03 9.9796344447550368e-06 -6.0005323336187475e-03  -1.7462536292413673e-03 -2.1227738740129568e-06 -1.0339765345023299e-02  -2.0897633818756328e-03 -2.2614484475474879e-05 -1.5679385300930868e-02  -2.3944429857722430e-03 -5.0939736014643270e-05 -2.1911336792608531e-02  -2.6610649828259559e-03 -8.6422326761700563e-05 -2.8929004953987664e-02  -2.8907476298650216e-03 -1.2834331321401820e-04 -3.6628350272772232e-02  -3.0849489411916759e-03 -1.7596862648740940e-04 -4.4908900211906480e-02  -3.2454767088939333e-03 -2.2856357886248389e-04 -5.3674725570693943e-02  -3.3745015378652877e-03 -2.8540270511274567e-04 -6.2835439546275559e-02  -3.4745685043950994e-03 -3.4577814695192679e-04 -7.2307226513279477e-02  -3.5486062990670998e-03 -4.0900787985567293e-04 -8.2013897171653999e-02  -3.5999337880684113e-03 -4.7444422869916011e-04 -9.1887963877413520e-02  -3.6322640790984379e-03 -5.4148272055187601e-04 -1.0187172979260757e-01  -3.6497060851233372e-03 -6.0957093376320568e-04 -1.1191838605332222e-01  -3.6567713783369686e-03 -6.7821965729273118e-04 -1.2199311743015710e-01  -3.6584534474543720e-03 -7.4707070049429448e-04 -1.3207429321490019e-01  0.0000000000000000e+00 0.0000000000000000e+00 0.0000000000000000e+00  -4.7592373577254223e-04 2.6357712177220783e-05 -7.3716227706692190e-04  -9.3057475635648014e-04 3.4353433009994764e-05 -2.7391213233952374e-03  -1.3507399126602528e-03 3.1477575279705434e-05 -5.9548754860990595e-03  -1.7322906881658067e-03 1.8274748623757523e-05 -1.0280636639789653e-02  -2.0747868162902089e-03 -4.0321825919815877e-06 -1.5608268218712411e-02  -2.3786055132733819e-03 -3.4414237116347905e-05 -2.1829619555322387e-02  -2.6445219142554460e-03 -7.2000839372164698e-05 -2.8838030325069302e-02  -2.8736493074731800e-03 -1.1598773475926266e-04 -3.6529418363384178e-02  -3.0674363677710933e-03 -1.6559615065852405e-04 -4.4803259530388599e-02  -3.2276787977330280e-03 -2.2006138400142798e-04 -5.3563561221729700e-02  -3.3565328260697631e-03 -2.7863304658267763e-04 -6.2719860500296223e-02  -3.4565269364408915e-03 -3.4057995594069003e-04 -7.2188252399832772e-02  -3.5305709666874027e-03 -4.0519715712593991e-04 -8.1892444768477249e-02  -3.5819626126895295e-03 -4.7181412993324161e-04 -9.1764833420095754e-02  -3.6143915279984889e-03 -5.3980381194811675e-04 -1.0174759129682694e-01  -3.6319406737861590e-03 -6.0859182057932271e-04 -1.1179376600292723e-01  -3.6390899215253516e-03 -6.7766563538457128e-04 -1.2186838492904462e-01  -3.6408021586334946e-03 -7.4661878441272206e-04 -1.3194963575978608e-01  0.0000000000000000e+00 0.0000000000000000e+00 0.0000000000000000e+00  -4.6569935273453562e-04 4.3131068772274656e-05 -7.1352796713127148e-04  -9.1800424201065711e-04 5.5314679439588981e-05 -2.6940666048710640e-03  -1.3372380192851142e-03 5.3030644557884367e-05 -5.8938790175217205e-03  -1.7178945953892990e-03 3.8708353621611718e-05 -1.0206868973444182e-02  -2.0595193076862455e-03 1.4594356256140602e-05 -1.5523771979216863e-02  -2.3625688069326507e-03 -1.7838034327161005e-05 -2.1735981035689651e-02  -2.6278494685928089e-03 -5.7526690783090395e-05 -2.8736638124706136e-02  -2.8564794494967730e-03 -1.0358060039916099e-04 -3.6421550551304291e-02  -3.0499013468185373e-03 -1.5517517105315514e-04 -4.4690107481854320e-02  -3.2098995598867563e-03 -2.1151516705073442e-04 -5.3446230132902998e-02  -3.3386157626114242e-03 -2.7182508970315512e-04 -6.2599361066036169e-02  -3.4385612959724095e-03 -3.3535039104621759e-04 -7.2065489050197565e-02  -3.5126264610210491e-03 -4.0136319663385841e-04 -8.1768202545320134e-02  -3.5640870682778218e-03 -4.6917013204413976e-04 -9.1639764349176520e-02  -3.5966087236685659e-03 -5.3812138028122005e-04 -1.0162220074685507e-01  -3.6142489540645592e-03 -6.0762018877402767e-04 -1.1166839965467330e-01  -3.6214582549598962e-03 -6.7712916498025803e-04 -1.2174321607940689e-01  -3.6231764020891008e-03 -7.4617944714704251e-04 -1.3182465506003993e-01  0.0000000000000000e+00 0.0000000000000000e+00 0.0000000000000000e+00  -4.5045114644702843e-04 6.2300318346606492e-05 -6.7740373851262370e-04  -9.0125735556394963e-04 7.7440209947611193e-05 -2.6332652067366938e-03  -1.3202041943682350e-03 7.5090113539608245e-05 -5.8169878968502642e-03  -1.7003828661263426e-03 5.9371644698720148e-05 -1.0118106650462864e-02  -2.0414983259788074e-03 3.3344958452835325e-05 -1.5425626866955705e-02  -2.3441216129051162e-03 -1.1812087619080377e-06 -2.1630203552830782e-02  -2.6090959135503388e-03 -4.2993874956068169e-05 -2.8624651489314226e-02  -2.8375440410087667e-03 -9.1129563074471477e-05 -3.6304606117083735e-02  -3.0309005998343727e-03 -1.4472289905053689e-04 -4.4569336687985461e-02  -3.1909360244656831e-03 -2.0294992262202260e-04 -5.3322655861925680e-02  -3.3197743897363887e-03 -2.6501067495333518e-04 -6.2473893232798401e-02  -3.4199066470518998e-03 -3.3012746927037895e-04 -7.1938914103399490e-02  -3.4942002035537770e-03 -3.9754957528632506e-04 -8.1641170659635276e-02  -3.5459055659326265e-03 -4.6656073070119511e-04 -9.1512775809807684e-02  -3.5786607818529903e-03 -5.3648812405502125e-04 -1.0149559218728170e-01  -3.5964951438572450e-03 -6.0671212880161567e-04 -1.1154233078177948e-01  -3.6038298627017271e-03 -6.7667074625177011e-04 -1.2161765757754005e-01  -3.6055699666555597e-03 -7.4582019950033673e-04 -1.3169939439209516e-01  0.0000000000000000e+00 0.0000000000000000e+00 0.0000000000000000e+00  -4.1998032278405217e-04 8.2551324560463821e-05 -6.2782215211659644e-04  -8.6906954194345505e-04 9.9466415810060089e-05 -2.5569654605527904e-03  -1.2886161800256452e-03 9.6416130234805789e-05 -5.7250670098877169e-03  -1.6694253511799534e-03 7.9077280316762317e-05 -1.0015385754008605e-02  -2.0113082708101389e-03 5.1123214413233348e-05 -1.5314880135817137e-02  -2.3148432836964596e-03 1.4572893360208315e-05 -2.1513282539317908e-02  -2.5808519932025366e-03 -2.9264291717773401e-05 -2.8502990132376713e-02  -2.8104316177304392e-03 -7.9374712295610897e-05 -3.6179420319829694e-02  -3.0049897712040698e-03 -1.3486151304017177e-04 -4.4441695290721416e-02  -3.1662678581466145e-03 -1.9487631820739917e-04 -5.3193499454279668e-02  -3.2963584687687713e-03 -2.5859714313131502e-04 -6.2344032418517284e-02  -3.3977184906522481e-03 -3.2522490706381771e-04 -7.1809019836527266e-02  -3.4731786703248559e-03 -3.9398752094165699e-04 -8.1511761614351058e-02  -3.5259502772357581e-03 -4.6414722465108212e-04 -9.1384204732681051e-02  -3.5596296611486470e-03 -5.3500945813846794e-04 -1.0136803197222941e-01  -3.5782022075315219e-03 -6.0593198050415084e-04 -1.1141576050666337e-01  -3.5860533174929309e-03 -6.7633519399656276e-04 -1.2149184224080112e-01  -3.5879822794913593e-03 -7.4558076902223980e-04 -1.3157391513947453e-01  0.0000000000000000e+00 0.0000000000000000e+00 0.0000000000000000e+00  -2.6374520507892142e-04 -3.5536340986280763e-05 -7.0274713519587553e-04  -5.0241081769710828e-04 -4.1032805100752663e-05 -2.7506103629501774e-03  -7.1951608660222887e-04 -5.2907099246808072e-05 -6.0270655972053215e-03  -9.1615798809399607e-04 -7.1636556473728618e-05 -1.0414033091456909e-02  -1.0925891397523455e-03 -9.7531069943311273e-05 -1.5799452387416767e-02  -1.2490421582347826e-03 -1.3025829910793925e-04 -2.2073773750668223e-02  -1.3859166586189186e-03 -1.6925634093963431e-04 -2.9129834168080525e-02  -1.5037885798666131e-03 -2.1388327246834384e-04 -3.6863412596773205e-02  -1.6034099110667013e-03 -2.6347615790939412e-04 -4.5174013272872925e-02  -1.6857134581988677e-03 -3.1737620469104012e-04 -5.3965764736046959e-02  -1.7518195278763147e-03 -3.7494212302523606e-04 -6.3148390860533643e-02  -1.8030421717785789e-03 -4.3555969536882385e-04 -7.2638230194332312e-02  -1.8408941872972619e-03 -4.9865036706112629e-04 -8.2359288532950381e-02  -1.8670907809980629e-03 -5.6367974438200827e-04 -9.2244314180575021e-02  -1.8835522171848410e-03 -6.3016612358267549e-04 -1.0223588823418835e-01  -1.8924067369195492e-03 -6.9768933420308278e-04 -1.1228752467911454e-01  -1.8959974723476651e-03 -7.6590487182910270e-04 -1.2236478728254310e-01  -1.8968649493263006e-03 -8.3456139241895231e-04 -1.3244649217475435e-01  0.0000000000000000e+00 0.0000000000000000e+00 0.0000000000000000e+00  -2.4908915601846348e-04 -1.7692637692313311e-05 -7.2162224692412806e-04  -4.8992055950907159e-04 -2.6389594773130003e-05 -2.7651319840519876e-03  -7.0593556553251197e-04 -3.9590608867336424e-05 -6.0268047212847691e-03  -9.0156272932595321e-04 -5.9637861590672707e-05 -1.0397315576035699e-02  -1.0770873876250859e-03 -8.6841887868059216e-05 -1.5766668366342603e-02  -1.2327722822871843e-03 -1.2085883641410924e-04 -2.2026004721296073e-02  -1.3690250290968387e-03 -1.6111360310034476e-04 -2.9068406422112610e-02  -1.4864184285519782e-03 -2.0695203518347212e-04 -3.6789739009562075e-02  -1.5856954717617180e-03 -2.5769919939144949e-04 -4.5089529225130473e-02  -1.6677765013325169e-03 -3.1268407155309860e-04 -5.3871897384119904e-02  -1.7337667659814541e-03 -3.7125277001646544e-04 -6.3046540290850467e-02  -1.7849629177978446e-03 -4.3277815133777888e-04 -7.2529754591156459e-02  -1.8228580537580890e-03 -4.9666847650552560e-04 -8.2245490468365406e-02  -1.8491453552133788e-03 -5.6237599818677417e-04 -9.2126426934982547e-02  -1.8657205428473653e-03 -6.2940556908867254e-04 -1.0211506151069714e-01  -1.8746837935412039e-03 -6.9732354780041637e-04 -1.1216480851485670e-01  -1.8783461021057363e-03 -7.6577245472971185e-04 -1.2224110779189473e-01  -1.8792591094394786e-03 -8.3451345796050410e-04 -1.3232261655029931e-01  0.0000000000000000e+00 0.0000000000000000e+00 0.0000000000000000e+00  -2.4181417895650454e-04 -5.8837559925914619e-06 -7.2889371824379971e-04  -4.7956374168525826e-04 -1.3756349624127818e-05 -2.7641106041640623e-03  -6.9401630199967992e-04 -2.7565322991424003e-05 -6.0118468430251362e-03  -8.8830200135666130e-04 -4.8631559055604980e-05 -1.0367263132964395e-02  -1.0626902226643989e-03 -7.6974521367642132e-05 -1.5721993771151157e-02  -1.2174176994758201e-03 -1.1215465751429365e-04 -2.1967780689267878e-02  -1.3528800297824522e-03 -1.5355699526682249e-04 -2.8997924043158780e-02  -1.4696405830777874e-03 -2.0050675803937658e-04 -3.6708359651743294e-02  -1.5684320731053586e-03 -2.5231461841864286e-04 -4.4998622534879615e-02  -1.6501630012804185e-03 -3.0829707255519657e-04 -5.3772810807061110e-02  -1.7159249203114134e-03 -3.6778821584222395e-04 -6.2940580018547257e-02  -1.7669987336611901e-03 -4.3014887235639441e-04 -7.2418170450368829e-02  -1.8048595934864536e-03 -4.9477515131719470e-04 -8.2129461989591257e-02  -1.8311804194350001e-03 -5.6110707476416831e-04 -9.2007049581392011e-02  -1.8478340714500538e-03 -6.2863732704358127e-04 -1.0199333260104609e-01  -1.8568941539176902e-03 -6.9692022331235349e-04 -1.1204161225094530e-01  -1.8606398182879705e-03 -7.6558549998076192e-04 -1.2211719706236406e-01  -1.8616040133103099e-03 -8.3438997236797341e-04 -1.3219858120074815e-01  0.0000000000000000e+00 0.0000000000000000e+00 0.0000000000000000e+00  -2.3692299957592255e-04 3.4998006035597351e-06 -7.2553219374266729e-04  -4.7107264212220058e-04 -2.5037427560309980e-06 -2.7480166029343988e-03  -6.8365810201805868e-04 -1.6309213479566089e-05 -5.9814595723425585e-03  -8.7644843936242746e-04 -3.8102101851895199e-05 -1.0322747242150487e-02  -1.0495519977265439e-03 -6.7448022341708814e-05 -1.5664232763980705e-02  -1.2031739822643247e-03 -1.0371367726128509e-04 -2.1897959928441728e-02  -1.3377006540715994e-03 -1.4620815477136914e-04 -2.8917341415215032e-02  -1.4536877454221415e-03 -1.9422324460167188e-04 -3.6618338588441976e-02  -1.5518591712696504e-03 -2.4705088474575248e-04 -4.4900469601520721e-02  -1.6331130026826179e-03 -3.0399378542473140e-04 -5.3667791710869529e-02  -1.6985285198149807e-03 -3.6437383698653404e-04 -6.2829902606918717e-02  -1.7493723293638748e-03 -4.2754007754940100e-04 -7.2302970133182348e-02  -1.7871031139063962e-03 -4.9287688065198217e-04 -8.2010787867154836e-02  -1.8133750272012218e-03 -5.5981253763361452e-04 -9.1885850672489430e-02  -1.8300396866739370e-03 -6.2782816989120221e-04 -1.0187044399711224e-01  -1.8391462140126690e-03 -6.9646676227229918e-04 -1.1191774119763920e-01  -1.8429439950513468e-03 -7.6534485478968082e-04 -1.2199290792028757e-01  -1.8439396105623105e-03 -8.3419809285977821e-04 -1.3207426457356006e-01  0.0000000000000000e+00 0.0000000000000000e+00 0.0000000000000000e+00  -2.3195328432434165e-04 1.2062119487207078e-05 -7.1260006270753142e-04  -4.6298447331939019e-04 8.0516941256392059e-06 -2.7176361865165425e-03  -6.7377781500857958e-04 -5.4570884379690295e-06 -5.9358375424585176e-03  -8.6510085160217945e-04 -2.7817693532916868e-05 -1.0263685946663473e-02  -1.0369011081712055e-03 -5.8084867245711308e-05 -1.5593198194774349e-02  -1.1893819340312436e-03 -9.5390917627377953e-05 -2.1816325069951369e-02  -1.3229312800310245e-03 -1.3894786979944671e-04 -2.8826442067919764e-02  -1.4381011639247490e-03 -1.8800538234083359e-04 -3.6519472285692481e-02  -1.5356083273180905e-03 -2.4183336864497154e-04 -4.4794884206968560e-02  -1.6163412484679891e-03 -2.9971963813916059e-04 -5.3556672527550329e-02  -1.6813674809461228e-03 -3.6097360865002068e-04 -6.2714359212618698e-02  -1.7319397783636071e-03 -4.2493259470005357e-04 -7.2184023010443646e-02  -1.7695007674220222e-03 -4.9096942503335309e-04 -8.1889354835461239e-02  -1.7956862600611283e-03 -5.5850089699348651e-04 -9.1762733182223902e-02  -1.8123272399802244e-03 -6.2699682692089569e-04 -1.0174631344557335e-01  -1.8214497681127862e-03 -6.9598918387200426e-04 -1.1179312570913418e-01  -1.8252755274212810e-03 -7.6508076783180683e-04 -1.2186817913462754e-01  -1.8262831263417903e-03 -8.3397380917439731e-04 -1.3194961476926750e-01  0.0000000000000000e+00 0.0000000000000000e+00 0.0000000000000000e+00  -2.2579631999769946e-04 2.0994935304987633e-05 -6.8982692542971956e-04  -4.5423040945374388e-04 1.8594529714191349e-05 -2.6729812436391978e-03  -6.6348534586786983e-04 5.3360329961627956e-06 -5.8750719139035465e-03  -8.5345502933131280e-04 -1.7584077233495735e-05 -1.0190104859344230e-02  -1.0240153381489349e-03 -4.8755743359246963e-05 -1.5508866011005332e-02  -1.1754018259902725e-03 -8.7089185331502633e-05 -2.1722830067130373e-02  -1.3080137315341584e-03 -1.3169943539865641e-04 -2.8725172648563287e-02  -1.4224019672301759e-03 -1.8179258622181413e-04 -3.6411706754677156e-02  -1.5192767894064907e-03 -2.3661571583631904e-04 -4.4681814706659190e-02  -1.5995171040503529e-03 -2.9544142714569936e-04 -5.3439405414850122e-02  -1.6641784863925650e-03 -3.5756660966260721e-04 -6.2593906653866535e-02  -1.7144994726483696e-03 -4.2231690730166544e-04 -7.2061291184580947e-02  -1.7519062261396406e-03 -4.8905369936102312e-04 -8.1765130802658750e-02  -1.7780158040494197e-03 -5.5718238096564307e-04 -9.1637671260779610e-02  -1.7946382618540108e-03 -6.2616148944752447e-04 -1.0162092155757609e-01  -1.8037772145995867e-03 -6.9551206084047796e-04 -1.1166775232108077e-01  -1.8076281705487450e-03 -7.6482300385025072e-04 -1.2174300137800005e-01  -1.8086377463398407e-03 -8.3375482470051234e-04 -1.3182462703011633e-01  0.0000000000000000e+00 0.0000000000000000e+00 0.0000000000000000e+00  -2.1755185035632736e-04 3.1699663048735229e-05 -6.5530935771458405e-04  -4.4365171991879373e-04 3.0051099936200609e-05 -2.6130539015880878e-03  -6.5159583979062152e-04 1.6677892469147029e-05 -5.7987591720014544e-03  -8.4035751546079657e-04 -6.9686358709915549e-06 -1.0101788950534272e-02  -1.0098196905613832e-03 -3.9124933232436682e-05 -1.5411086621549379e-02  -1.1602575947174303e-03 -7.8534005729260698e-05 -2.1617357151066247e-02  -1.2920777362754312e-03 -1.2423468259405