<?xml version="1.0"?>
<VTKFile type="UnstructuredGrid"  version="0.1"  >
<UnstructuredGrid>
<Piece  NumberOfPoints="760" NumberOfCells="3024">
<Points>
<DataArray  type="Float64"  NumberOfComponents="3"  format="ascii">0 0 0  0.05555555555555555 0 0  0.1111111111111111 0 0  0.1666666666666667 0 0  0.2222222222222222 0 0  0.2777777777777778 0 0  0.3333333333333333 0 0  0.3888888888888889 0 0  0.4444444444444444 0 0  0.5 0 0  0.5555555555555556 0 0  0.6111111111111112 0 0  0.6666666666666666 0 0  0.7222222222222222 0 0  0.7777777777777778 0 0  0.8333333333333334 0 0  0.8888888888888888 0 0  0.9444444444444444 0 0  1 0 0  0 0.01428571428571429 0  0.05555555555555555 0.01428571428571429 0  0.1111111111111111 0.01428571428571429 0  0.1666666666666667 0.01428571428571429 0  0.2222222222222222 0.01428571428571429 0  0.2777777777777778 0.01428571428571429 0  0.3333333333333333 0.01428571428571429 0  0.3888888888888889 0.01428571428571429 0  0.4444444444444444 0.01428571428571429 0  0.5 0.01428571428571429 0  0.5555555555555556 0.01428571428571429 0  0.6111111111111112 0.01428571428571429 0  0.6666666666666666 0.01428571428571429 0  0.7222222222222222 0.01428571428571429 0  0.7777777777777778 0.01428571428571429 0  0.8333333333333334 0.01428571428571429 0  0.8888888888888888 0.01428571428571429 0  0.9444444444444444 0.01428571428571429 0  1 0.01428571428571429 0  0 0.02857142857142857 0  0.05555555555555555 0.02857142857142857 0  0.1111111111111111 0.02857142857142857 0  0.1666666666666667 0.02857142857142857 0  0.2222222222222222 0.02857142857142857 0  0.2777777777777778 0.02857142857142857 0  0.3333333333333333 0.02857142857142857 0  0.3888888888888889 0.02857142857142857 0  0.4444444444444444 0.02857142857142857 0  0.5 0.02857142857142857 0  0.5555555555555556 0.02857142857142857 0  0.6111111111111112 0.02857142857142857 0  0.6666666666666666 0.02857142857142857 0  0.7222222222222222 0.02857142857142857 0  0.7777777777777778 0.02857142857142857 0  0.8333333333333334 0.02857142857142857 0  0.8888888888888888 0.02857142857142857 0  0.9444444444444444 0.02857142857142857 0  1 0.02857142857142857 0  0 0.04285714285714286 0  0.05555555555555555 0.04285714285714286 0  0.1111111111111111 0.04285714285714286 0  0.1666666666666667 0.04285714285714286 0  0.2222222222222222 0.04285714285714286 0  0.2777777777777778 0.04285714285714286 0  0.3333333333333333 0.04285714285714286 0  0.3888888888888889 0.04285714285714286 0  0.4444444444444444 0.04285714285714286 0  0.5 0.04285714285714286 0  0.5555555555555556 0.04285714285714286 0  0.6111111111111112 0.04285714285714286 0  0.6666666666666666 0.04285714285714286 0  0.7222222222222222 0.04285714285714286 0  0.7777777777777778 0.04285714285714286 0  0.8333333333333334 0.04285714285714286 0  0.8888888888888888 0.04285714285714286 0  0.9444444444444444 0.04285714285714286 0  1 0.04285714285714286 0  0 0.05714285714285715 0  0.05555555555555555 0.05714285714285715 0  0.1111111111111111 0.05714285714285715 0  0.1666666666666667 0.05714285714285715 0  0.2222222222222222 0.05714285714285715 0  0.2777777777777778 0.05714285714285715 0  0.3333333333333333 0.05714285714285715 0  0.3888888888888889 0.05714285714285715 0  0.4444444444444444 0.05714285714285715 0  0.5 0.05714285714285715 0  0.5555555555555556 0.05714285714285715 0  0.6111111111111112 0.05714285714285715 0  0.6666666666666666 0.05714285714285715 0  0.7222222222222222 0.05714285714285715 0  0.7777777777777778 0.05714285714285715 0  0.8333333333333334 0.05714285714285715 0  0.8888888888888888 0.05714285714285715 0  0.9444444444444444 0.05714285714285715 0  1 0.05714285714285715 0  0 0.07142857142857142 0  0.05555555555555555 0.07142857142857142 0  0.1111111111111111 0.07142857142857142 0  0.1666666666666667 0.07142857142857142 0  0.2222222222222222 0.07142857142857142 0  0.2777777777777778 0.07142857142857142 0  0.3333333333333333 0.07142857142857142 0  0.3888888888888889 0.07142857142857142 0  0.4444444444444444 0.07142857142857142 0  0.5 0.07142857142857142 0  0.5555555555555556 0.07142857142857142 0  0.6111111111111112 0.07142857142857142 0  0.6666666666666666 0.07142857142857142 0  0.7222222222222222 0.07142857142857142 0  0.7777777777777778 0.07142857142857142 0  0.8333333333333334 0.07142857142857142 0  0.8888888888888888 0.07142857142857142 0  0.9444444444444444 0.07142857142857142 0  1 0.07142857142857142 0  0 0.08571428571428573 0  0.05555555555555555 0.08571428571428573 0  0.1111111111111111 0.08571428571428573 0  0.1666666666666667 0.08571428571428573 0  0.2222222222222222 0.08571428571428573 0  0.2777777777777778 0.08571428571428573 0  0.3333333333333333 0.08571428571428573 0  0.3888888888888889 0.08571428571428573 0  0.4444444444444444 0.08571428571428573 0  0.5 0.08571428571428573 0  0.5555555555555556 0.08571428571428573 0  0.6111111111111112 0.08571428571428573 0  0.6666666666666666 0.08571428571428573 0  0.7222222222222222 0.08571428571428573 0  0.7777777777777778 0.08571428571428573 0  0.8333333333333334 0.08571428571428573 0  0.8888888888888888 0.08571428571428573 0  0.9444444444444444 0.08571428571428573 0  1 0.08571428571428573 0  0 0.1 0  0.05555555555555555 0.1 0  0.1111111111111111 0.1 0  0.1666666666666667 0.1 0  0.2222222222222222 0.1 0  0.2777777777777778 0.1 0  0.3333333333333333 0.1 0  0.3888888888888889 0.1 0  0.4444444444444444 0.1 0  0.5 0.1 0  0.5555555555555556 0.1 0  0.6111111111111112 0.1 0  0.6666666666666666 0.1 0  0.7222222222222222 0.1 0  0.7777777777777778 0.1 0  0.8333333333333334 0.1 0  0.8888888888888888 0.1 0  0.9444444444444444 0.1 0  1 0.1 0  0 0 0.01  0.05555555555555555 0 0.01  0.1111111111111111 0 0.01  0.1666666666666667 0 0.01  0.2222222222222222 0 0.01  0.2777777777777778 0 0.01  0.3333333333333333 0 0.01  0.3888888888888889 0 0.01  0.4444444444444444 0 0.01  0.5 0 0.01  0.5555555555555556 0 0.01  0.6111111111111112 0 0.01  0.6666666666666666 0 0.01  0.7222222222222222 0 0.01  0.7777777777777778 0 0.01  0.8333333333333334 0 0.01  0.8888888888888888 0 0.01  0.9444444444444444 0 0.01  1 0 0.01  0 0.01428571428571429 0.01  0.05555555555555555 0.01428571428571429 0.01  0.1111111111111111 0.01428571428571429 0.01  0.1666666666666667 0.01428571428571429 0.01  0.2222222222222222 0.01428571428571429 0.01  0.2777777777777778 0.01428571428571429 0.01  0.3333333333333333 0.01428571428571429 0.01  0.3888888888888889 0.01428571428571429 0.01  0.4444444444444444 0.01428571428571429 0.01  0.5 0.01428571428571429 0.01  0.5555555555555556 0.01428571428571429 0.01  0.6111111111111112 0.01428571428571429 0.01  0.6666666666666666 0.01428571428571429 0.01  0.7222222222222222 0.01428571428571429 0.01  0.7777777777777778 0.01428571428571429 0.01  0.8333333333333334 0.01428571428571429 0.01  0.8888888888888888 0.01428571428571429 0.01  0.9444444444444444 0.01428571428571429 0.01  1 0.01428571428571429 0.01  0 0.02857142857142857 0.01  0.05555555555555555 0.02857142857142857 0.01  0.1111111111111111 0.02857142857142857 0.01  0.1666666666666667 0.02857142857142857 0.01  0.2222222222222222 0.02857142857142857 0.01  0.2777777777777778 0.02857142857142857 0.01  0.3333333333333333 0.02857142857142857 0.01  0.3888888888888889 0.02857142857142857 0.01  0.4444444444444444 0.02857142857142857 0.01  0.5 0.02857142857142857 0.01  0.5555555555555556 0.02857142857142857 0.01  0.6111111111111112 0.02857142857142857 0.01  0.6666666666666666 0.02857142857142857 0.01  0.7222222222222222 0.02857142857142857 0.01  0.7777777777777778 0.02857142857142857 0.01  0.8333333333333334 0.02857142857142857 0.01  0.8888888888888888 0.02857142857142857 0.01  0.9444444444444444 0.02857142857142857 0.01  1 0.02857142857142857 0.01  0 0.04285714285714286 0.01  0.05555555555555555 0.04285714285714286 0.01  0.1111111111111111 0.04285714285714286 0.01  0.1666666666666667 0.04285714285714286 0.01  0.2222222222222222 0.04285714285714286 0.01  0.2777777777777778 0.04285714285714286 0.01  0.3333333333333333 0.04285714285714286 0.01  0.3888888888888889 0.04285714285714286 0.01  0.4444444444444444 0.04285714285714286 0.01  0.5 0.04285714285714286 0.01  0.5555555555555556 0.04285714285714286 0.01  0.6111111111111112 0.04285714285714286 0.01  0.6666666666666666 0.04285714285714286 0.01  0.7222222222222222 0.04285714285714286 0.01  0.7777777777777778 0.04285714285714286 0.01  0.8333333333333334 0.04285714285714286 0.01  0.8888888888888888 0.04285714285714286 0.01  0.9444444444444444 0.04285714285714286 0.01  1 0.04285714285714286 0.01  0 0.05714285714285715 0.01  0.05555555555555555 0.05714285714285715 0.01  0.1111111111111111 0.05714285714285715 0.01  0.1666666666666667 0.05714285714285715 0.01  0.2222222222222222 0.05714285714285715 0.01  0.2777777777777778 0.05714285714285715 0.01  0.3333333333333333 0.05714285714285715 0.01  0.3888888888888889 0.05714285714285715 0.01  0.4444444444444444 0.05714285714285715 0.01  0.5 0.05714285714285715 0.01  0.5555555555555556 0.05714285714285715 0.01  0.6111111111111112 0.05714285714285715 0.01  0.6666666666666666 0.05714285714285715 0.01  0.7222222222222222 0.05714285714285715 0.01  0.7777777777777778 0.05714285714285715 0.01  0.8333333333333334 0.05714285714285715 0.01  0.8888888888888888 0.05714285714285715 0.01  0.9444444444444444 0.05714285714285715 0.01  1 0.05714285714285715 0.01  0 0.07142857142857142 0.01  0.05555555555555555 0.07142857142857142 0.01  0.1111111111111111 0.07142857142857142 0.01  0.1666666666666667 0.07142857142857142 0.01  0.2222222222222222 0.07142857142857142 0.01  0.2777777777777778 0.07142857142857142 0.01  0.3333333333333333 0.07142857142857142 0.01  0.3888888888888889 0.07142857142857142 0.01  0.4444444444444444 0.07142857142857142 0.01  0.5 0.07142857142857142 0.01  0.5555555555555556 0.07142857142857142 0.01  0.6111111111111112 0.07142857142857142 0.01  0.6666666666666666 0.07142857142857142 0.01  0.7222222222222222 0.07142857142857142 0.01  0.7777777777777778 0.07142857142857142 0.01  0.8333333333333334 0.07142857142857142 0.01  0.8888888888888888 0.07142857142857142 0.01  
[...]
<PointData  Vectors="f_33"> 
<DataArray  type="Float64"  Name="f_33"  NumberOfComponents="3" format="ascii">0.0000000000000000e+00 0.0000000000000000e+00 0.0000000000000000e+00  -3.2331981144538007e-03 -1.9451857689600676e-04 -4.6614993356893343e-03  -6.0326246417837358e-03 1.7043586596295795e-04 -1.7868323289065648e-02  -8.5864518285347444e-03 7.5922303261278731e-04 -3.9017442923383043e-02  -1.0898569359613983e-02 1.5149996538443601e-03 -6.7351655361428828e-02  -1.2972762580192821e-02 2.4076667539419099e-03 -1.0215386433922242e-01  -1.4812198160868128e-02 3.4168473235840755e-03 -1.4272228860793235e-01  -1.6421592084784681e-02 4.5256457179986649e-03 -1.8836940941965710e-01  -1.7807547256099152e-02 5.7187207161631150e-03 -2.3842530896609740e-01  -1.8978665555061881e-02 6.9816936976081620e-03 -2.9224256851537256e-01  -1.9945667963908214e-02 8.3010282828021777e-03 -3.4920200170435228e-01  -2.0721518267877097e-02 9.6640840311115715e-03 -4.0871895636244587e-01  -2.1321534303104888e-02 1.1059237996256892e-02 -4.7025004195822923e-01  -2.1763480474486424e-02 1.2476034834998560e-02 -5.3330018639380306e-01  -2.2067640440904764e-02 1.3905350850462841e-02 -5.9742994709040398e-01  -2.2256872374451675e-02 1.5339567679268359e-02 -6.6226301355718986e-01  -2.2356664788570315e-02 1.6772754663246351e-02 -7.2749385157556390e-01  -2.2395250387892814e-02 1.8200846302863040e-02 -7.9289552575718425e-01  -2.2403513373252831e-02 1.9621964193767910e-02 -8.5832852909088964e-01  0.0000000000000000e+00 0.0000000000000000e+00 0.0000000000000000e+00  -3.0881854074052244e-03 -3.4842113932791129e-05 -4.7988702374513860e-03  -5.9557774945531603e-03 3.1191358896863296e-04 -1.7965560467583609e-02  -8.5677427662472824e-03 8.8723449226295488e-04 -3.9018094031065702e-02  -1.0934003731513956e-02 1.6299919345823671e-03 -6.7245665412472219e-02  -1.3058056971664062e-02 2.5098613329794833e-03 -1.0194393106852233e-01  -1.4943083313946373e-02 3.5064999144851653e-03 -1.4241537357830678e-01  -1.6593822074020433e-02 4.6031056324458558e-03 -1.8797399673418513e-01  -1.8016889110059234e-02 5.7844436599194440e-03 -2.3795043110274430e-01  -1.9220904102327220e-02 7.0362489232035762e-03 -2.9169741323524395e-01  -2.0216624475204403e-02 8.3451055339051183e-03 -3.4859572424418905e-01  -2.1017077106488542e-02 9.6984998457605599e-03 -4.0806056366797550e-01  -2.1637674508790131e-02 1.1084940949586198e-02 -4.6954829995900438e-01  -2.2096310905236543e-02 1.2494109566188669e-02 -5.3256353222640385e-01  -2.2413437710010923e-02 1.3917020690717754e-02 -5.9666639936286914e-01  -2.2612119785803322e-02 1.5346195553227287e-02 -6.6148007643403439e-01  -2.2718084041971828e-02 1.6775841848242632e-02 -7.2669840433683786e-01  -2.2759842689826570e-02 1.8202014541089200e-02 -7.9209366140787141e-01  -2.2769178660850046e-02 1.9622563143500766e-02 -8.5752517224107383e-01  0.0000000000000000e+00 0.0000000000000000e+00 0.0000000000000000e+00  -3.0798473188243286e-03 8.7189456311996945e-05 -4.8531860322296987e-03  -5.9777637391047432e-03 4.5037193526632215e-04 -1.7967553234494251e-02  -8.6337220807966106e-03 1.0211043463180466e-03 -3.8927200523014432e-02  -1.1043606643006725e-02 1.7533168484102993e-03 -6.7056020024455223e-02  -1.3208264910077554e-02 2.6207212455560212e-03 -1.0165909474130337e-01  -1.5130226452100859e-02 3.6044313261172634e-03 -1.4204239698910437e-01  -1.6814070167487503e-02 4.6882091249290641e-03 -1.8752120725242771e-01  -1.8266405606539270e-02 5.8570902640660153e-03 -2.3742657662272659e-01  -1.9495913914518426e-02 7.0969855642432434e-03 -2.9111129948118442e-01  -2.0513459324218910e-02 8.3946262885757350e-03 -3.4795603336240405e-01  -2.1332214635505227e-02 9.7376394677117072e-03 -4.0737573787558018e-01  -2.1967776298137447e-02 1.1114675642492376e-02 -4.6882644643160604e-01  -2.2438261193940046e-02 1.2515559553582960e-02 -5.3181233292641938e-01  -2.2764383245413584e-02 1.3931452245432902e-02 -5.9589301980834919e-01  -2.2969509463347013e-02 1.5355020770730414e-02 -6.6069107060432053e-01  -2.3079700380696049e-02 1.6780615743744585e-02 -7.2589961150074733e-01  -2.3123811796430322e-02 1.8204432383662827e-02 -7.9129007807400586e-01  -2.3134044611450660e-02 1.9624267208517260e-02 -8.5672068181368555e-01  0.0000000000000000e+00 0.0000000000000000e+00 0.0000000000000000e+00  -3.0939976277366385e-03 1.9264924411420466e-04 -4.8379874291091590e-03  -6.0223382326793379e-03 5.8429102270282879e-04 -1.7871146735706719e-02  -8.7206815682343945e-03 1.1574173184721065e-03 -3.8737059343708205e-02  -1.1172432612804829e-02 1.8814708606012885e-03 -6.6773471214912727e-02  -1.3375719768933477e-02 2.7369839333358037e-03 -1.0129014097688818e-01  -1.5332574147039668e-02 3.7076408032807218e-03 -1.4159479222665880e-01  -1.7047497376538139e-02 4.7782080673459577e-03 -1.8700333784298642e-01  -1.8527133588784366e-02 5.9341599616196273e-03 -2.3684696820606030e-01  -1.9780252342196311e-02 7.1616485804591942e-03 -2.9047837516735370e-01  -2.0817847550959223e-02 8.4475796850868520e-03 -3.4727797228857765e-01  -2.1653260004804741e-02 9.7797342305299996e-03 -4.0666037054603071e-01  -2.2302292368447437e-02 1.1146912313138824e-02 -4.6808116153777174e-01  -2.2783306909323838e-02 1.2539089018130913e-02 -5.3104398613815340e-01  -2.3117303281859066e-02 1.3947577185451842e-02 -5.9510784129059646e-01  -2.3327975137023935e-02 1.5365194942016169e-02 -6.5989457044612154e-01  -2.3441744099522318e-02 1.6786440112818119e-02 -7.2509648228270229e-01  -2.3487824470553424e-02 1.8207659246826092e-02 -7.9048408247916091e-01  -2.3498778120077578e-02 1.9626807272041993e-02 -8.5591440587825840e-01  0.0000000000000000e+00 0.0000000000000000e+00 0.0000000000000000e+00  -3.1025148993906846e-03 2.9573608684605823e-04 -4.7587961710845927e-03  -6.0686372649771010e-03 7.1769373244456663e-04 -1.7681029637976953e-02  -8.8123235531186537e-03 1.2958817537058473e-03 -3.8448135296226212e-02  -1.1306770903268306e-02 2.0130258446784369e-03 -6.6396887189790976e-02  -1.3548679222113055e-02 2.8569595126053241e-03 -1.0083538500858237e-01  -1.5540111739296668e-02 3.8144525984477973e-03 -1.4107076039022279e-01  -1.7285686242307748e-02 4.8715281030452971e-03 -1.8641865366495708e-01  -1.8792151676048412e-02 6.0142070258448633e-03 -2.3621000315118854e-01  -2.0068393943181998e-02 7.2289279176236763e-03 -2.8979719337267185e-01  -2.1125549385583454e-02 8.5027906836589902e-03 -3.4656025544401842e-01  -2.1977133945889540e-02 9.8237399348081109e-03 -4.0591333518790901e-01  -2.2639161729152497e-02 1.1180731350031144e-02 -4.6731147167897746e-01  -2.3130245069277928e-02 1.2563895121164678e-02 -5.3025766240823013e-01  -2.3471674082566191e-02 1.3964700426020013e-02 -5.9431016753923138e-01  -2.3687475093639297e-02 1.5376121323460758e-02 -6.5908999926543499e-01  -2.3804443065475252e-02 1.6792807323370282e-02 -7.2428854163018486e-01  -2.3852170591140791e-02 1.8211265419483175e-02 -7.8967527316616182e-01  -2.3863625394890411e-02 1.9629775626421916e-02 -8.5510602201863539e-01  0.0000000000000000e+00 0.0000000000000000e+00 0.0000000000000000e+00  -3.0951329548662659e-03 4.0851221885949946e-04 -4.6127279327765639e-03  -6.1066258946288606e-03 8.5709538929575155e-04 -1.7396626158674156e-02  -8.8998612076563247e-03 1.4388695739747756e-03 -3.8060130545795615e-02  -1.1438800522438036e-02 2.1485615688046234e-03 -6.5925654763686212e-02  -1.3720225491841017e-02 2.9805700403299244e-03 -1.0029403146150910e-01  -1.5746807290965659e-02 3.9245505269079250e-03 -1.4046946962286272e-01  -1.7523464625670331e-02 4.9677659118180818e-03 -1.8576636132740870e-01  -1.9057112676344426e-02 6.0967961135625220e-03 -2.3551495892990051e-01  -2.0356773740216660e-02 7.2983764982497727e-03 -2.8906711485214148e-01  -2.1433731007471590e-02 8.5598079886817051e-03 -3.4580233058478765e-01  -2.2301673811531919e-02 9.8692039044555608e-03 -4.0513416636481642e-01  -2.2976823531356810e-02 1.1215679872730200e-02 -4.6651699600601820e-01  -2.3478037534967890e-02 1.2589525434977017e-02 -5.2945306188555930e-01  -2.3826891146845532e-02 1.3982370649739827e-02 -5.9349977476365678e-01  -2.4047738732831239e-02 1.5387351155774196e-02 -6.5827720216507035e-01  -2.4167751959730008e-02 1.6799274706840436e-02 -7.2347569152685920e-01  -2.4216927349520169e-02 1.8214817982841830e-02 -7.8886359184428778e-01  -2.4228697498995311e-02 1.9632710243822935e-02 -8.5429551424491057e-01  0.0000000000000000e+00 0.0000000000000000e+00 0.0000000000000000e+00  -3.0573533003086500e-03 5.4142343597318417e-04 -4.3859547222420414e-03  -6.1195117603685244e-03 1.0086666092956457e-03 -1.7010353213899151e-02  -8.9663436136429766e-03 1.5893554944488256e-03 -3.7569255045144377e-02  -1.1552373446834388e-02 2.2893797332102454e-03 -6.5357294450001019e-02  -1.3875560433843522e-02 3.1083749626966491e-03 -9.9664173400562328e-02  -1.5939413708700140e-02 4.0381652166908153e-03 -1.3978936755783444e-01  -1.7749187411780217e-02 5.0669903011705411e-03 -1.8504519099239511e-01  -1.9311960024791592e-02 6.1818999171353072e-03 -2.3476081805609725e-01  -2.0636877196554389e-02 7.3698972234802059e-03 -2.8828735612998424e-01  -2.1735351210322783e-02 8.6184762223160006e-03 -3.4500363219849051e-01  -2.2621224391761032e-02 9.9159187544753009e-03 -4.0432249950527749e-01  -2.3310903476253485e-02 1.1251503211935578e-02 -4.6569755167739796e-01  -2.3823468044228274e-02 1.2615682591099386e-02 -5.2863016153463394e-01  -2.4180755247369370e-02 1.4000252761996143e-02 -5.9267677471982516e-01  -2.4407423439697241e-02 1.5398517435919650e-02 -6.5745639653486232e-01  -2.4531002042853065e-02 1.6805451859989058e-02 -7.2265821809966402e-01  -2.4581910460254461e-02 1.8217903747667883e-02 -7.8804934786683412e-01  -2.4594024699924368e-02 1.9635147261773182e-02 -8.5348317641621418e-01  0.0000000000000000e+00 0.0000000000000000e+00 0.0000000000000000e+00  -2.9267797459663139e-03 6.8616481439407384e-04 -4.0718690433081111e-03  -6.0373463690400440e-03 1.1643974242699195e-03 -1.6522798987779780e-02  -8.9430774234131438e-03 1.7395093278835929e-03 -3.6980148891665676e-02  -1.1583014706147485e-02 2.4279666583151773e-03 -6.4697655020473033e-02  -1.3955886476297613e-02 3.2334124062568040e-03 -9.8951838284967855e-02  -1.6065334674160006e-02 4.1490299132844865e-03 -1.3903625467813965e-01  -1.7916572215599825e-02 5.1636859990228283e-03 -1.8426055963107524e-01  -1.9516648207970881e-02 6.2647600473644659e-03 -2.3395255312525090e-01  -2.0874711138242283e-02 7.4394670707956861e-03 -2.8746242215160267e-01  -2.2002206164603539e-02 8.6754704560210016e-03 -3.4416819012903593e-01  -2.2913038805263679e-02 9.9612090934058217e-03 -4.0348188976730531e-01  -2.3623711513493222e-02 1.1286117256944247e-02 -4.6485622469844318e-01  -2.4153434694502138e-02 1.2640806231284421e-02 -5.2779158802379400e-01  -2.4524213858339451e-02 1.4017233319043329e-02 -5.9184334862837140e-01  -2.4760915968906144e-02 1.5408867082211808e-02 -6.5662933595512851e-01  -2.4891324036442373e-02 1.6810855039850029e-02 -7.2183746635260015e-01  -2.4946237839471315e-02 1.8220190773376211e-02 -7.8723343635846432e-01  -2.4959666904527066e-02 1.9636786502686902e-02 -8.5266941517528061e-01  0.0000000000000000e+00 0.0000000000000000e+00 0.0000000000000000e+00  -1.4872520393183421e-03 -7.1872184484155294e-05 -4.5247108801584257e-03  -2.8206391605740625e-03 2.6264123868634281e-04 -1.7741889498742600e-02  -4.0307948448556801e-03 7.7963529858118320e-04 -3.8901326438239153e-02  -5.1273296780722016e-03 1.4579189508403222e-03 -6.7246270002041114e-02  -6.1122310132672277e-03 2.2755680116095891e-03 -1.0205929645707172e-01  -6.9866777463832063e-03 3.2148456135235341e-03 -1.4263846577616715e-01  -7.7526917760328490e-03 4.2598119945604076e-03 -1.8829613561379308e-01  -8.4132656955584247e-03 5.3954806665408687e-03 -2.3836228471386969e-01  -8.9723654130347674e-03 6.6075826294615583e-03 -2.9218939627811807e-01  -9.4349635636796388e-03 7.8825713311723895e-03 -3.4915818391810521e-01  -9.8070894915930646e-03 9.2077199785611068e-03 -4.0868389111367470e-01  -1.0095879185254106e-02 1.0571256572044703e-02 -4.7022301842690911e-01  -1.0309618411854311e-02 1.1962516353377658e-02 -5.3328038081700491e-01  -1.0457777153535375e-02 1.3372103877958393e-02 -5.9741641941858648e-01  -1.0551036377003895e-02 1.4792061878683203e-02 -6.6225470465489622e-01  -1.0601315520460590e-02 1.6216042399939595e-02 -7.2748957921405899e-01  -1.0621821909691305e-02 1.7639447135901900e-02 -7.9289397157994579e-01  -1.0626827908398122e-02 1.9059654798549860e-02 -8.5832784429948961e-01  0.0000000000000000e+00 0.0000000000000000e+00 0.0000000000000000e+00  -1.4604294399431399e-03 2.7794818459679806e-05 -4.6482805420459362e-03  -2.8637451408138931e-03 3.4340259416617961e-04 -1.7837974041426057e-02  -4.1216449067723003e-03 8.5299312371832304e-04 -3.8902015813651755e-02  -5.2617311558172866e-03 1.5240359876056069e-03 -6.7140647987603261e-02  -6.2858220571995098e-03 2.3344981521696171e-03 -1.0184977247416892e-01  -7.1953047718852706e-03 3.2666873883835297e-03 -1.4233191096866687e-01  -7.9923480454886283e-03 4.3047365013826264e-03 -1.8790100584064814e-01  -8.6800587488932782e-03 5.4337273374620628e-03 -2.3788760710003709e-01  -9.2625190124373206e-03 6.6394578299804911e-03 -2.9164436256795112e-01  -9.7448393395324542e-03 7.9084501243620632e-03 -3.4855195767324543e-01  -1.0133217952415612e-02 9.2280489369792173e-03 -4.0802549007838401e-01  -1.0434995502764943e-02 1.0586556542179520e-02 -4.6952122110204114e-01  -1.0658701109669926e-02 1.1973384761730156e-02 -5.3254363842308261e-01  -1.0814088823333026e-02 1.3379216422370267e-02 -5.9665276609687667e-01  -1.0912164912765884e-02 1.4796173723557238e-02 -6.6147166177310401e-01  -1.0965210879989716e-02 1.6217989849616195e-02 -7.2669404614625621e-01  -1.0986844498725166e-02 1.7640147599271197e-02 -7.9209206174943947e-01  -1.0992220478869491e-02 1.9059907084903776e-02 -8.5752463862040995e-01  0.0000000000000000e+00 0.0000000000000000e+00 0.0000000000000000e+00  -1.4752556187181390e-03 9.4588141656388262e-05 -4.6978081174781985e-03  -2.9182048197064570e-03 4.1569703388199500e-04 -1.7834181137681988e-02  -4.2208635159675257e-03 9.2230925628589350e-04 -3.8808255221267705e-02  -5.4024719406458302e-03 1.5876467458796355e-03 -6.6949230127189757e-02  -6.4643488868648472e-03 2.3916047956236658e-03 -1.0156364780595994e-01  -7.4077317543727161e-03 3.3171086018286230e-03 -1.4195791162623364e-01  -8.2348098863570147e-03 4.3485419966238590e-03 -1.8744738002659325e-01  -8.9487660438028662e-03 5.4711126409670401e-03 -2.3736307108785495e-01  -9.5537920015313620e-03 6.6707042503730760e-03 -2.9105770652867463e-01  -1.0055141638514497e-02 7.9339129408652447e-03 -3.4791185314249840e-01  -1.0459192278662145e-02 9.2481551358708069e-03 -4.0734036952894520e-01  -1.0773501278609907e-02 1.0601805617580728e-02 -4.6879918128708115e-01  -1.1006853756471443e-02 1.1984350216314690e-02 -5.3179234958705246e-01  -1.1169300448170280e-02 1.3386546940819203e-02 -5.9587938045460442e-01  -1.1272184990740881e-02 1.4800593401271125e-02 -6.6068271828976333e-01  -1.1328160921113833e-02 1.6220298975905101e-02 -7.2589536786490994e-01  -1.1351244288369004e-02 1.7641232092859532e-02 -7.9128862916065301e-01  -1.1357160092720368e-02 1.9060641370556027e-02 -8.5672035889355436e-01  0.0000000000000000e+00 0.0000000000000000e+00 0.0000000000000000e+00  -1.5023361691026791e-03 1.5059474979960889e-04 -4.6790211860228978e-03  -2.9828934406882163e-03 4.8339804166922293e-04 -1.7733450982538916e-02  -4.3287283422313323e-03 9.9062299413105073e-04 -3.8615061651902698e-02  -5.5509260504784004e-03 1.6517844231336550e-03 -6.6664504204687683e-02  -6.6496841592439005e-03 2.4497318704532118e-03 -1.0119299801587212e-01  -7.6260671296602420e-03 3.3686703539020668e-03 -1.4150891049502790e-01  -8.4823041213526393e-03 4.3934745326129994e-03 -1.8692833821853219e-01  -9.2216659126500827e-03 5.5095636478692533e-03 -2.3678248152489298e-01  -9.8484639967498233e-03 6.7029382963577286e-03 -2.9042397510019324e-01  -1.0368105323176979e-02 7.9602804095389376e-03 -3.4723314648385467e-01  -1.0787156138070946e-02 9.2690829535382133e-03 -4.0662450624259322e-01  -1.1113400541174649e-02 1.0617795465798959e-02 -4.6805353716804277e-01  -1.1355889862322778e-02 1.1995979075648713e-02 -5.3102376577536214e-01  -1.1524981866690414e-02 1.3394467827405375e-02 -5.9509407067188214e-01  -1.1632368604509889e-02 1.4805534881111559e-02 -6.5988617415735584e-01  -1.1691088540706209e-02 1.6223064404621883e-02 -7.2509226227253876e-01  -1.1715555810928447e-02 1.7642714789671287e-02 -7.9048270820694722e-01  -1.1721957784122094e-02 1.9061849123480207e-02 -8.5591421671898305e-01  0.0000000000000000e+00 0.0000000000000000e+00 0.0000000000000000e+00  -1.5276853156974317e-03 2.0588505410419145e-04 -4.5985344291502826e-03  -3.0493773810866430e-03 5.5107867220698993e-04 -1.7540621573494852e-02  -4.4391913071789163e-03 1.0603710531223876e-03 -3.8323520792042667e-02  -5.7022048774294544e-03 1.7179938840917810e-03 -6.6285785885213694e-02  -6.8377367922142435e-03 2.5100709887810255e-03 -1.0073647793021533e-01  -7.8469066177203582e-03 3.4223530212957568e-03 -1.4098338246626241e-01  -8.7320542263301208e-03 4.4403467586637156e-03 -1.8634237462580561e-01  -9.4965628734616885e-03 5.5497420853888061e-03 -2.3614442888568588e-01  -1.0144874024486090e-02 6.7366807813908887e-03 -2.8974188275200480e-01  -1.0682553101660990e-02 7.9879412286993773e-03 -3.4651468424730564e-01  -1.1116358848216004e-02 9.2910983846677172e-03 -4.0587687874867517e-01  -1.1454305037565808e-02 1.0634680076624319e-02 -4.6728339528788199e-01  -1.1705711957214706e-02 1.2008325608535975e-02 -5.3023711527053863e-01  -1.1881247181978699e-02 1.3402947768031992e-02 -5.9429617859895667e-01  -1.1992954953146897e-02 1.4810897818573438e-02 -6.5908147426725783e-01  -1.2054267438848028e-02 1.6226135784945420e-02 -7.2428426223656017e-01  -1.2080007070445518e-02 1.7644413696041774e-02 -7.8967389288376488e-01  -1.2086791685646588e-02 1.9063317333369426e-02 -8.5510587647599712e-01  0.0000000000000000e+00 0.0000000000000000e+00 0.0000000000000000e+00  -1.5456067813155601e-03 2.6808023570924105e-04 -4.4545719170294403e-03  -3.1118825517582140e-03 6.2320821132894673e-04 -1.7255688176277591e-02  -4.5474401859349842e-03 1.1338230723160303e-03 -3.7934182071892343e-02  -5.8520153073821357e-03 1.7875505626278950e-03 -6.5813207881215308e-02  -7.0247117000603806e-03 2.5734751651940108e-03 -1.0019390464377989e-01  -8.0669537364637858e-03 3.4788021209424466e-03 -1.4038100668684711e-01  -8.9812529576945386e-03 4.4896714055189715e-03 -1.8568912446209460e-01  -9.7711200184349839e-03 5.5920556021311655e-03 -2.3544854708660520e-01  -1.0441130014768644e-02 6.7722460503774054e-03 -2.8901108108222495e-01  -1.0997006536425330e-02 8.0171230364314786e-03 -3.4575614491749918e-01  -1.1445698818698171e-02 9.3143476308533372e-03 -4.0509719776745001e-01  -1.1795447584401361e-02 1.0652529605047487e-02 -4.6648850243891066e-01  -1.2055839079187563e-02 1.2021390011544583e-02 -5.2943218409969484e-01  -1.2237847624720801e-02 1.3411924126010055e-02 -5.9348553207820376e-01  -1.2353867193810909e-02 1.4816565564466259e-02 -6.5826848941370086e-01  -1.2417727760504189e-02 1.6229353584455136e-02 -7.2347127787920862e-01  -1.2444679486309757e-02 1.7646135083963396e-02 -7.8886212261253486e-01  -1.2451755055645200e-02 1.9064800190698873e-02 -8.5429531474961995e-01  0.0000000000000000e+00 0.0000000000000000e+00 0.0000000000000000e+00  -1.5517714463765472e-03 3.4638268024280079e-04 -4.2347932517681538e-03  -3.1641605849124788e-03 7.0583225539670388e-04 -1.6872059873432588e-02  -4.6468439667507501e-03 1.2149751955522886e-03 -3.7444318916063930e-02  -5.9938684188808036e-03 1.8633093592727401e-03 -6.5245276002355135e-02  -7.2045889347380201e-03 2.6421674369676057e-03 -9.9564216778317866e-02  -8.2807867321724564e-03 3.5398405058150845e-03 -1.3970093815875551e-01  -9.2251166258557667e-03 4.5429667884006398e-03 -1.8496789867776167e-01  -1.0041194358500953e-02 5.6377599079419187e-03 -2.3469428351573390e-01  -1.0733714601386226e-02 6.8106500817297841e-03 -2.8823114551588713e-01  -1.1308548184329342e-02 8.0486192538575443e-03 