<?xml version="1.0"?>
<VTKFile type="UnstructuredGrid"  version="0.1"  >
<UnstructuredGrid>
<Piece  NumberOfPoints="760" NumberOfCells="3024">
<Points>
<DataArray  type="Float64"  NumberOfComponents="3"  format="ascii">0 0 0  0.05555555555555555 0 0  0.1111111111111111 0 0  0.1666666666666667 0 0  0.2222222222222222 0 0  0.2777777777777778 0 0  0.3333333333333333 0 0  0.3888888888888889 0 0  0.4444444444444444 0 0  0.5 0 0  0.5555555555555556 0 0  0.6111111111111112 0 0  0.6666666666666666 0 0  0.7222222222222222 0 0  0.7777777777777778 0 0  0.8333333333333334 0 0  0.8888888888888888 0 0  0.9444444444444444 0 0  1 0 0  0 0.01428571428571429 0  0.05555555555555555 0.01428571428571429 0  0.1111111111111111 0.01428571428571429 0  0.1666666666666667 0.01428571428571429 0  0.2222222222222222 0.01428571428571429 0  0.2777777777777778 0.01428571428571429 0  0.3333333333333333 0.01428571428571429 0  0.3888888888888889 0.01428571428571429 0  0.4444444444444444 0.01428571428571429 0  0.5 0.01428571428571429 0  0.5555555555555556 0.01428571428571429 0  0.6111111111111112 0.01428571428571429 0  0.6666666666666666 0.01428571428571429 0  0.7222222222222222 0.01428571428571429 0  0.7777777777777778 0.01428571428571429 0  0.8333333333333334 0.01428571428571429 0  0.8888888888888888 0.01428571428571429 0  0.9444444444444444 0.01428571428571429 0  1 0.01428571428571429 0  0 0.02857142857142857 0  0.05555555555555555 0.02857142857142857 0  0.1111111111111111 0.02857142857142857 0  0.1666666666666667 0.02857142857142857 0  0.2222222222222222 0.02857142857142857 0  0.2777777777777778 0.02857142857142857 0  0.3333333333333333 0.02857142857142857 0  0.3888888888888889 0.02857142857142857 0  0.4444444444444444 0.02857142857142857 0  0.5 0.02857142857142857 0  0.5555555555555556 0.02857142857142857 0  0.6111111111111112 0.02857142857142857 0  0.6666666666666666 0.02857142857142857 0  0.7222222222222222 0.02857142857142857 0  0.7777777777777778 0.02857142857142857 0  0.8333333333333334 0.02857142857142857 0  0.8888888888888888 0.02857142857142857 0  0.9444444444444444 0.02857142857142857 0  1 0.02857142857142857 0  0 0.04285714285714286 0  0.05555555555555555 0.04285714285714286 0  0.1111111111111111 0.04285714285714286 0  0.1666666666666667 0.04285714285714286 0  0.2222222222222222 0.04285714285714286 0  0.2777777777777778 0.04285714285714286 0  0.3333333333333333 0.04285714285714286 0  0.3888888888888889 0.04285714285714286 0  0.4444444444444444 0.04285714285714286 0  0.5 0.04285714285714286 0  0.5555555555555556 0.04285714285714286 0  0.6111111111111112 0.04285714285714286 0  0.6666666666666666 0.04285714285714286 0  0.7222222222222222 0.04285714285714286 0  0.7777777777777778 0.04285714285714286 0  0.8333333333333334 0.04285714285714286 0  0.8888888888888888 0.04285714285714286 0  0.9444444444444444 0.04285714285714286 0  1 0.04285714285714286 0  0 0.05714285714285715 0  0.05555555555555555 0.05714285714285715 0  0.1111111111111111 0.05714285714285715 0  0.1666666666666667 0.05714285714285715 0  0.2222222222222222 0.05714285714285715 0  0.2777777777777778 0.05714285714285715 0  0.3333333333333333 0.05714285714285715 0  0.3888888888888889 0.05714285714285715 0  0.4444444444444444 0.05714285714285715 0  0.5 0.05714285714285715 0  0.5555555555555556 0.05714285714285715 0  0.6111111111111112 0.05714285714285715 0  0.6666666666666666 0.05714285714285715 0  0.7222222222222222 0.05714285714285715 0  0.7777777777777778 0.05714285714285715 0  0.8333333333333334 0.05714285714285715 0  0.8888888888888888 0.05714285714285715 0  0.9444444444444444 0.05714285714285715 0  1 0.05714285714285715 0  0 0.07142857142857142 0  0.05555555555555555 0.07142857142857142 0  0.1111111111111111 0.07142857142857142 0  0.1666666666666667 0.07142857142857142 0  0.2222222222222222 0.07142857142857142 0  0.2777777777777778 0.07142857142857142 0  0.3333333333333333 0.07142857142857142 0  0.3888888888888889 0.07142857142857142 0  0.4444444444444444 0.07142857142857142 0  0.5 0.07142857142857142 0  0.5555555555555556 0.07142857142857142 0  0.6111111111111112 0.07142857142857142 0  0.6666666666666666 0.07142857142857142 0  0.7222222222222222 0.07142857142857142 0  0.7777777777777778 0.07142857142857142 0  0.8333333333333334 0.07142857142857142 0  0.8888888888888888 0.07142857142857142 0  0.9444444444444444 0.07142857142857142 0  1 0.07142857142857142 0  0 0.08571428571428573 0  0.05555555555555555 0.08571428571428573 0  0.1111111111111111 0.08571428571428573 0  0.1666666666666667 0.08571428571428573 0  0.2222222222222222 0.08571428571428573 0  0.2777777777777778 0.08571428571428573 0  0.3333333333333333 0.08571428571428573 0  0.3888888888888889 0.08571428571428573 0  0.4444444444444444 0.08571428571428573 0  0.5 0.08571428571428573 0  0.5555555555555556 0.08571428571428573 0  0.6111111111111112 0.08571428571428573 0  0.6666666666666666 0.08571428571428573 0  0.7222222222222222 0.08571428571428573 0  0.7777777777777778 0.08571428571428573 0  0.8333333333333334 0.08571428571428573 0  0.8888888888888888 0.08571428571428573 0  0.9444444444444444 0.08571428571428573 0  1 0.08571428571428573 0  0 0.1 0  0.05555555555555555 0.1 0  0.1111111111111111 0.1 0  0.1666666666666667 0.1 0  0.2222222222222222 0.1 0  0.2777777777777778 0.1 0  0.3333333333333333 0.1 0  0.3888888888888889 0.1 0  0.4444444444444444 0.1 0  0.5 0.1 0  0.5555555555555556 0.1 0  0.6111111111111112 0.1 0  0.6666666666666666 0.1 0  0.7222222222222222 0.1 0  0.7777777777777778 0.1 0  0.8333333333333334 0.1 0  0.8888888888888888 0.1 0  0.9444444444444444 0.1 0  1 0.1 0  0 0 0.01  0.05555555555555555 0 0.01  0.1111111111111111 0 0.01  0.1666666666666667 0 0.01  0.2222222222222222 0 0.01  0.2777777777777778 0 0.01  0.3333333333333333 0 0.01  0.3888888888888889 0 0.01  0.4444444444444444 0 0.01  0.5 0 0.01  0.5555555555555556 0 0.01  0.6111111111111112 0 0.01  0.6666666666666666 0 0.01  0.7222222222222222 0 0.01  0.7777777777777778 0 0.01  0.8333333333333334 0 0.01  0.8888888888888888 0 0.01  0.9444444444444444 0 0.01  1 0 0.01  0 0.01428571428571429 0.01  0.05555555555555555 0.01428571428571429 0.01  0.1111111111111111 0.01428571428571429 0.01  0.1666666666666667 0.01428571428571429 0.01  0.2222222222222222 0.01428571428571429 0.01  0.2777777777777778 0.01428571428571429 0.01  0.3333333333333333 0.01428571428571429 0.01  0.3888888888888889 0.01428571428571429 0.01  0.4444444444444444 0.01428571428571429 0.01  0.5 0.01428571428571429 0.01  0.5555555555555556 0.01428571428571429 0.01  0.6111111111111112 0.01428571428571429 0.01  0.6666666666666666 0.01428571428571429 0.01  0.7222222222222222 0.01428571428571429 0.01  0.7777777777777778 0.01428571428571429 0.01  0.8333333333333334 0.01428571428571429 0.01  0.8888888888888888 0.01428571428571429 0.01  0.9444444444444444 0.01428571428571429 0.01  1 0.01428571428571429 0.01  0 0.02857142857142857 0.01  0.05555555555555555 0.02857142857142857 0.01  0.1111111111111111 0.02857142857142857 0.01  0.1666666666666667 0.02857142857142857 0.01  0.2222222222222222 0.02857142857142857 0.01  0.2777777777777778 0.02857142857142857 0.01  0.3333333333333333 0.02857142857142857 0.01  0.3888888888888889 0.02857142857142857 0.01  0.4444444444444444 0.02857142857142857 0.01  0.5 0.02857142857142857 0.01  0.5555555555555556 0.02857142857142857 0.01  0.6111111111111112 0.02857142857142857 0.01  0.6666666666666666 0.02857142857142857 0.01  0.7222222222222222 0.02857142857142857 0.01  0.7777777777777778 0.02857142857142857 0.01  0.8333333333333334 0.02857142857142857 0.01  0.8888888888888888 0.02857142857142857 0.01  0.9444444444444444 0.02857142857142857 0.01  1 0.02857142857142857 0.01  0 0.04285714285714286 0.01  0.05555555555555555 0.04285714285714286 0.01  0.1111111111111111 0.04285714285714286 0.01  0.1666666666666667 0.04285714285714286 0.01  0.2222222222222222 0.04285714285714286 0.01  0.2777777777777778 0.04285714285714286 0.01  0.3333333333333333 0.04285714285714286 0.01  0.3888888888888889 0.04285714285714286 0.01  0.4444444444444444 0.04285714285714286 0.01  0.5 0.04285714285714286 0.01  0.5555555555555556 0.04285714285714286 0.01  0.6111111111111112 0.04285714285714286 0.01  0.6666666666666666 0.04285714285714286 0.01  0.7222222222222222 0.04285714285714286 0.01  0.7777777777777778 0.04285714285714286 0.01  0.8333333333333334 0.04285714285714286 0.01  0.8888888888888888 0.04285714285714286 0.01  0.9444444444444444 0.04285714285714286 0.01  1 0.04285714285714286 0.01  0 0.05714285714285715 0.01  0.05555555555555555 0.05714285714285715 0.01  0.1111111111111111 0.05714285714285715 0.01  0.1666666666666667 0.05714285714285715 0.01  0.2222222222222222 0.05714285714285715 0.01  0.2777777777777778 0.05714285714285715 0.01  0.3333333333333333 0.05714285714285715 0.01  0.3888888888888889 0.05714285714285715 0.01  0.4444444444444444 0.05714285714285715 0.01  0.5 0.05714285714285715 0.01  0.5555555555555556 0.05714285714285715 0.01  0.6111111111111112 0.05714285714285715 0.01  0.6666666666666666 0.05714285714285715 0.01  0.7222222222222222 0.05714285714285715 0.01  0.7777777777777778 0.05714285714285715 0.01  0.8333333333333334 0.05714285714285715 0.01  0.8888888888888888 0.05714285714285715 0.01  0.9444444444444444 0.05714285714285715 0.01  1 0.05714285714285715 0.01  0 0.07142857142857142 0.01  0.05555555555555555 0.07142857142857142 0.01  0.1111111111111111 0.07142857142857142 0.01  0.1666666666666667 0.07142857142857142 0.01  0.2222222222222222 0.07142857142857142 0.01  0.2777777777777778 0.07142857142857142 0.01  0.3333333333333333 0.07142857142857142 0.01  0.3888888888888889 0.07142857142857142 0.01  0.4444444444444444 0.07142857142857142 0.01  0.5 0.07142857142857142 0.01  0.5555555555555556 0.07142857142857142 0.01  0.6111111111111112 0.07142857142857142 0.01  0.6666666666666666 0.07142857142857142 0.01  0.7222222222222222 0.07142857142857142 0.01  0.7777777777777778 0.07142857142857142 0.01  0.8333333333333334 0.07142857142857142 0.01  0.8888888888888888 0.07142857142857142 0.01  
[...]
<PointData  Vectors="f_33"> 
<DataArray  type="Float64"  Name="f_33"  NumberOfComponents="3" format="ascii">0.0000000000000000e+00 0.0000000000000000e+00 0.0000000000000000e+00  3.5254670847800298e-03 2.2199142680339590e-04 5.0586782848279326e-03  6.5826206848215033e-03 -1.4948488313336434e-04 1.9401045028751385e-02  9.3755129761831178e-03 -7.4984230784553717e-04 4.2383368752512987e-02  1.1907943010707338e-02 -1.5187977075710180e-03 7.3193290025031402e-02  1.4183632063664423e-02 -2.4252150225115192e-03 1.1106111827618730e-01  1.6205532948072792e-02 -3.4484675353787528e-03 1.5523253406800747e-01  1.7978164803336437e-02 -4.5716348784477431e-03 2.0496703320150936e-01  1.9508003511199162e-02 -5.7793940500628811e-03 2.5954119331232778e-01  2.0803645022179212e-02 -7.0573615235561592e-03 3.1825373802039120e-01  2.1875987217309920e-02 -8.3919500651357115e-03 3.8043164677383962e-01  2.2738421053256925e-02 -9.7704183061336960e-03 4.4543704361398428e-01  2.3407009721124809e-02 -1.1180998064947146e-02 5.1267472065069863e-01  2.3900645328153766e-02 -1.2613056659012307e-02 5.8160019117257888e-01  2.4241178637924101e-02 -1.4057278000614159e-02 6.5172817973592556e-01  2.4453521928855228e-02 -1.5505857376747832e-02 7.2264146091227144e-01  2.4565743356108380e-02 -1.6952708541823982e-02 7.9399996602874923e-01  2.4609217269403044e-02 -1.8393667733783231e-02 8.6555017087629416e-01  2.4618541266749904e-02 -1.9826855098664786e-02 9.3713566636461176e-01  0.0000000000000000e+00 0.0000000000000000e+00 0.0000000000000000e+00  3.3632332693741738e-03 4.7464643541704706e-05 5.2079400901858999e-03  6.4905110349289521e-03 -3.0437715667090990e-04 1.9506891463540597e-02  9.3428517546580228e-03 -8.9021283090868694e-04 4.2384453807848242e-02  1.1930776462935394e-02 -1.6451039823725366e-03 7.3078549594632627e-02  1.4257723601695953e-02 -2.5376711100823794e-03 1.1083332228615823e-01  1.6326661045338711e-02 -3.5473198315437706e-03 1.5489908250313777e-01  1.8142123156349384e-02 -4.6572265978736338e-03 2.0453698928978786e-01  1.9710582625524074e-02 -5.8521810730326994e-03 2.5902423462575025e-01  2.1040630433438224e-02 -7.1179228260179880e-03 3.1765973790340457e-01  2.2143172907809969e-02 -8.4409982613211105e-03 3.7977047752125620e-01  2.3031632166169696e-02 -9.8088096110229457e-03 4.4471845609798361e-01  2.3722131558891354e-02 -1.1209741021042037e-02 5.1190824667548140e-01  2.4233657371422329e-02 -1.2633319273798649e-02 5.8079504854642927e-01  2.4588192883452716e-02 -1.4070392930338498e-02 6.5089317233664445e-01  2.4810823578480586e-02 -1.5513324648636037e-02 7.2178486898375727e-01  2.4929824540805653e-02 -1.6956195171243190e-02 7.9312941722659014e-01  2.4976821232066241e-02 -1.8394987858998384e-02 8.6467245065970910e-01  2.4987348969946831e-02 -1.9827531374780490e-02 9.3625627733779748e-01  0.0000000000000000e+00 0.0000000000000000e+00 0.0000000000000000e+00  3.3500149623903624e-03 -8.5842615751736379e-05 5.2667257462234596e-03  6.5063039244644665e-03 -4.5570891344561860e-04 1.9508990149688439e-02  9.4028344856986225e-03 -1.0366767798679589e-03 4.2285692406401509e-02  1.2034916334805017e-02 -1.7802230793182094e-03 7.2872429931091956e-02  1.4403136369041718e-02 -2.6593371115091269e-03 1.1052356756616638e-01  1.6509750771064372e-02 -3.6549983614014331e-03 1.5449321068051863e-01  1.8359106069309392e-02 -4.7509899254926770e-03 2.0404391874728081e-01  1.9957648945867001e-02 -5.9323915219443926e-03 2.5845336189752288e-01  2.1314012973720639e-02 -7.1851327853490153e-03 3.1702055033484972e-01  2.2439191698167812e-02 -8.4959219992270067e-03 3.7907236139302147e-01  2.3346732927661529e-02 -9.8523194317655643e-03 4.4397057350014485e-01  2.4052923785483647e-02 -1.1242871253542642e-02 5.1111943317300734e-01  2.4576954086782749e-02 -1.2657271973714896e-02 5.7997371371090622e-01  2.4941052550863946e-02 -1.4086542565734763e-02 6.5004719654109078e-01  2.5170592606599585e-02 -1.5523219699730828e-02 7.2092149340132583e-01  2.5294171356134449e-02 -1.6961555927708264e-02 7.9225512232364370e-01  2.5343746610618202e-02 -1.8397703322777261e-02 8.6379280405126113e-01  2.5355267519761179e-02 -1.9829444639779790e-02 9.3537561912215705e-01  0.0000000000000000e+00 0.0000000000000000e+00 0.0000000000000000e+00  3.3614494843378891e-03 -2.0082461157034829e-04 5.2498913964607189e-03  6.5468210851256882e-03 -6.0180817263000492e-04 1.9403970906907115e-02  9.4857979123431201e-03 -1.1855200395050525e-03 4.2078771022599978e-02  1.2160149714136381e-02 -1.9203424735882533e-03 7.2564920090140733e-02  1.4567514520936738e-02 -2.7866592362780366e-03 1.1012186134075004e-01  1.6709600188962819e-02 -3.7682302016705175e-03 1.5400561268995708e-01  1.8590654481068791e-02 -4.8499225754021387e-03 2.0347943902290633e-01  2.0217141734256809e-02 -6.0172882363522927e-03 2.5782118632065593e-01  2.1597767104180286e-02 -7.2565174180567408e-03 3.1632978266401651e-01  2.2743636432954132e-02 -8.5545095422038427e-03 3.7833187261731266e-01  2.3668447963931555e-02 -9.8989969126473433e-03 4.4318888909584542e-01  2.4388678095472526e-02 -1.1278696215581967e-02 5.1030463055839659e-01  2.4923746652338871e-02 -1.2683476335862387e-02 5.7913331949657898e-01  2.5296155241164738e-02 -1.4104536775978369e-02 6.4918808011322349e-01  2.5531594441155655e-02 -1.5534593873301637e-02 7.2004975611693212e-01  2.5659016223083881e-02 -1.6968076643488966e-02 7.9137598162430034e-01  2.5710730503810005e-02 -1.8401318039981775e-02 8.6291045894935081e-01  2.5723042150580085e-02 -1.9832289810286362e-02 9.3449296257286985e-01  0.0000000000000000e+00 0.0000000000000000e+00 0.0000000000000000e+00  3.3668302091832934e-03 -3.1292003016278390e-04 5.1634535145632281e-03  6.5892515748836381e-03 -7.4704373779014264e-04 1.9196941801045482e-02  9.5738735055642399e-03 -1.3364303191827122e-03 4.1764206766038765e-02  1.2291400665096259e-02 -2.0639168905347916e-03 7.2154801749287109e-02  1.4737909540926675e-02 -2.9178063677828239e-03 1.0962638184480068e-01  1.6915132273020956e-02 -3.8851976520621161e-03 1.5343433988074176e-01  1.8827427288648536e-02 -4.9523148390930747e-03 2.0284166814777846e-01  2.0481352390284206e-02 -6.1052989711339444e-03 2.5712596666764181e-01  2.1885714191076367e-02 -7.3306495520297880e-03 3.1558586028783175e-01  2.3051744263712707e-02 -8.6154781181387464e-03 3.7754760954563171e-01  2.3993298750685940e-02 -9.9476992735724606e-03 4.4237217210275398e-01  2.4727048810518307e-02 -1.1316206532348033e-02 5.0946277260139095e-01  2.5272649318814178e-02 -1.2711048175129001e-02 5.7827295516422883e-01  2.5652880032986158e-02 -1.4123607106742814e-02 6.4831505633068665e-01  2.5893755592387022e-02 -1.5546784650996898e-02 7.1916902002709870e-01  2.6024596913677363e-02 -1.6975191309368091e-02 7.9049146842970486e-01  2.6078088937043525e-02 -1.8405351235064094e-02 8.6202496857549149e-01  2.6090944605765755e-02 -1.9835609444596457e-02 9.3360794833106830e-01  0.0000000000000000e+00 0.0000000000000000e+00 0.0000000000000000e+00  3.3548952927664744e-03 -4.3523045012761692e-04 5.0042856964108403e-03  6.6225883374569031e-03 -8.9849114413564316e-04 1.8887287041875544e-02  9.6574090120092118e-03 -1.4919867944414059e-03 4.1341680279167098e-02  1.2420057881479742e-02 -2.2115828538679708e-03 7.1641411282873171e-02  1.4906684579945697e-02 -3.0527022126424718e-03 1.0903626577729418e-01  1.7119668536066852e-02 -4.0055663546492027e-03 1.5277848755703943e-01  1.9063679299327421e-02 -5.0577378748386057e-03 2.0212974162475858e-01  2.0745434676733052e-02 -6.1959596919262160e-03 2.5636691409453732e-01  2.2173864106830761e-02 -7.4070514002546779e-03 3.1478808384078794e-01  2.3360329094688267e-02 -8.6783437638267829e-03 3.7671896671495025e-01  2.4318841025119994e-02 -9.9979389192547969e-03 4.4151991116635392e-01  2.5066260447994104e-02 -1.1354911801717422e-02 5.0859344006668561e-01  2.5622470925728447e-02 -1.2739494661929507e-02 5.7739229009896775e-01  2.6010523760075524e-02 -1.4143258831919372e-02 6.4742787817235181e-01  2.6256751801652118e-02 -1.5559297007692445e-02 7.1827911412086931e-01  2.6390848100169537e-02 -1.6982408758992953e-02 7.8960147462162444e-01  2.6445900371422120e-02 -1.8409320357198368e-02 8.6113626865065307e-01  2.6459094945097062e-02 -1.9838887585128872e-02 9.3272055938514298e-01  0.0000000000000000e+00 0.0000000000000000e+00 0.0000000000000000e+00  3.3097847119652937e-03 -5.7908683919895428e-04 4.7573775300638159e-03  6.6284735429512527e-03 -1.0628499331949163e-03 1.8466779621923307e-02  9.7178642460060242e-03 -1.6554212154404262e-03 4.0807073969483583e-02  1.2528435572350659e-02 -2.3647589839270178e-03 7.1022047921861675e-02  1.5057602731295080e-02 -3.1919620737594851e-03 1.0834942930089958e-01  1.7308643039482461e-02 -4.1295965135530223e-03 1.5203635314976124e-01  1.9286575691422093e-02 -5.1662775073245838e-03 2.0134226116606063e-01  2.0998275967172023e-02 -6.2892524802093102e-03 2.5554290321065065e-01  2.2452782054821679e-02 -7.4856290969244786e-03 3.1393558235220276e-01  2.3661565630207711e-02 -8.7429483556281176e-03 3.7584531155004763e-01  2.4638770128490872e-02 -1.0049499499728798e-02 4.4063169488810361e-01  2.5401420119008488e-02 -1.1394541880707590e-02 5.0769642291105921e-01  2.5969601024883861e-02 -1.2768496272788336e-02 5.7649129253478260e-01  2.6366607870045692e-02 -1.4163128048182575e-02 6.4652666532048542e-01  2.6619062863141946e-02 -1.5571728790643027e-02 7.1738027768285384e-01  2.6757007852896142e-02 -1.6989297914846910e-02 7.8870631809503344e-01  2.6813951378309716e-02 -1.8412766197560850e-02 8.6024470434974132e-01  2.6827523530910505e-02 -1.9841607989893012e-02 9.3183112443702765e-01  0.0000000000000000e+00 0.0000000000000000e+00 0.0000000000000000e+00  3.1635247167959113e-03 -7.3545004471388322e-04 4.4155495459741942e-03  6.5306863590951156e-03 -1.2313931949524981e-03 1.7936097472548432e-02  9.6803039293827942e-03 -1.8181896295543750e-03 4.0165464839791026e-02  1.2546100780540814e-02 -2.5152365854822622e-03 7.0303100870776694e-02  1.5126324460087895e-02 -3.3279701681537461e-03 1.0757245672564170e-01  1.7424391589684816e-02 -4.2504226800092236e-03 1.5121427652711561e-01  1.9445267335860821e-02 -5.2718819083513845e-03 2.0048515292452695e-01  2.1195779074489076e-02 -6.3799472825025816e-03 2.5465938071672833e-01  2.2684945021504005e-02 -7.5619533489344791e-03 3.1303329771657706e-01  2.3924242707480524e-02 -8.8056251331341401e-03 3.7493107251152979e-01  2.4927848115948326e-02 -1.0099426025110306e-02 4.3971143778376620e-01  2.5712848310286637e-02 -1.1432791793828065e-02 5.0677512639720035e-01  2.6299425043852954e-02 -1.2796325587471843e-02 5.7557286757300463e-01  2.6711007371884803e-02 -1.4181981527476576e-02 6.4561383609799206e-01  2.6974393466336507e-02 -1.5583246103865732e-02 7.1647445985425628e-01  2.7119849367435445e-02 -1.6995323614198428e-02 7.8780749759933888e-01  2.7181247690247934e-02 -1.8415320650427988e-02 8.5935127504166375e-01  2.7196295946351833e-02 -1.9843438417583577e-02 9.3094009768010721e-01  0.0000000000000000e+00 0.0000000000000000e+00 0.0000000000000000e+00  1.6292445519928954e-03 8.8731302090287140e-05 4.9094386529963093e-03  3.0924657065873194e-03 -2.4988982328697862e-04 1.9262932496148983e-02  4.4224708940738336e-03 -7.7239500288927415e-04 4.2256357192006606e-02  5.6294312558133660e-03 -1.4572035562696009e-03 7.3077844084348198e-02  6.7153127727513700e-03 -2.2820452804315689e-03 1.1095734877454490e-01  7.6811790992743281e-03 -3.2291595097440544e-03 1.5514038477065051e-01  8.5289608333273207e-03 -4.2826700850824261e-03 2.0488631907198238e-01  9.2616029982761517e-03 -5.4276520163303215e-03 2.5947162109702127e-01  9.8830873640431971e-03 -6.6498598557710340e-03 3.1819491011579770e-01  1.0398493011832897e-02 -7.9357198327044947e-03 3.8038305670329581e-01  1.0814077454380375e-02 -9.2724255486426356e-03 4.4539806870111087e-01  1.1137358481254286e-02 -1.0648078306369678e-02 5.1264461438155640e-01  1.1377187682159895e-02 -1.2051850048728302e-02 5.8157807623068958e-01  1.1543812049898893e-02 -1.3474160218355902e-02 6.5171304203923663e-01  1.1648923575835595e-02 -1.4906863055310969e-02 7.2263214458949732e-01  1.1705705315172748e-02 -1.6343439915639114e-02 7.9399516741382969e-01  1.1728897763669392e-02 -1.7779159276259227e-02 8.6554842268744669e-01  1.1734562947056854e-02 -1.9211329007908919e-02 9.3713489491685897e-01  0.0000000000000000e+00 0.0000000000000000e+00 0.0000000000000000e+00  1.5955703176154584e-03 -2.0587250121818705e-05 5.0438336779345845e-03  3.1310200017981992e-03 -3.3868007190051793e-04 1.9367674993104489e-02  4.5093206596364668e-03 -8.5317170751596130e-04 4.2257623045722080e-02  5.7603966044353092e-03 -1.5301267966846895e-03 7.2963630394984658e-02  6.8860527188547111e-03 -2.3471593299034493e-03 1.1073011151913635e-01  7.8875718278947158e-03 -3.2865548522927994e-03 1.5480742539572792e-01  8.7670284481379777e-03 -4.3325133378258780e-03 2.0445666994408890e-01  9.5274707632923353e-03 -5.4701823647953151e-03 2.5895495395120877e-01  1.0172980978430671e-02 -6.6853890285520929e-03 3.1760110281233395e-01  1.0708757812205099e-02 -7.9646357197593800e-03 3.7972199102603088e-01  1.1141208537697530e-02 -9.2951970370762065e-03 4.4467950799119960e-01  1.1478036916570721e-02 -1.0665260032754717e-02 5.1187810515656074e-01  1.1728320847500627e-02 -1.2064086517489653e-02 5.8077285299053028e-01  1.1902577134633167e-02 -1.3482189025660573e-02 6.5087792727334981e-01  1.2012812506316157e-02 -1.4911517274693486e-02 7.2177543933078092e-01  1.2072565384507641e-02 -1.6345650620166893e-02 7.9312452368333708e-01  1.2096984959108813e-02 -1.7779955621955976e-02 8.6467065119342801e-01  1.2103063333628771e-02 -1.9211615860441185e-02 9.3625567608497751e-01  0.0000000000000000e+00 0.0000000000000000e+00 0.0000000000000000e+00  1.6075755914876737e-03 -9.3809222647632884e-05 5.0976489089085810e-03  3.1821512529784054e-03 -4.1796804514244204e-04 1.9363688551414456e-02  4.6055143088340458e-03 -9.2925960675882243e-04 4.2155927345401779e-02  5.8985056373034384e-03 -1.6000497782084242e-03 7.2755744068241673e-02  7.0624104388944398e-03 -2.4100387082076347e-03 1.1041909550607437e-01  8.0983413718746129e-03 -3.3421781548827966e-03 1.5440056118618786e-01  9.0083795950237511e-03 -4.3809376968462757e-03 2.0396279101578149e-01  9.7956350057806004e-03 -5.5115997728278337e-03 2.5838342377829698e-01  1.0464283775651537e-02 -6.7200842812589661e-03 3.1696139332930690e-01  1.1019651305636482e-02 -7.9929751743377467e-03 3.7902347863631769e-01  1.1468307124747170e-02 -9.3176278223244015e-03 4.4393134597100381e-01  1.1818155692759593e-02 -1.0682312566021727e-02 5.1108911959689873e-01  1.2078516771556223e-02 -1.2076377659175646e-02 5.7995144261379716e-01  1.2260192572957662e-02 -1.3490424660304413e-02 6.5003195987223328e-01  1.2375519519136038e-02 -1.4916493554112235e-02 7.2091214159449402e-01  1.2438403912824433e-02 -1.6348255403363769e-02 7.9225036021437967e-01  1.2464391903336050e-02 -1.7781178925547415e-02 8.6379117391972360e-01  1.2471063514430614e-02 -1.9212443002484630e-02 9.3537525367022889e-01  0.0000000000000000e+00 0.0000000000000000e+00 0.0000000000000000e+00  1.6331136493174651e-03 -1.5499970849003252e-04 5.0771473804784263e-03  3.2445468445214906e-03 -4.9198070276614415e-04 1.9254173976507350e-02  4.7112405268036226e-03 -1.0039940630422873e-03 4.1945870866196666e-02  6.0451410778972724e-03 -1.6703035171612608e-03 7.2446028556080178e-02  7.2463171479467889e-03 -2.4738106858634410e-03 1.1001568529865270e-01  8.3156845704578410e-03 -3.3988506084130705e-03 1.5391156476870310e-01  9.2553514917534923e-03 -4.4304222898231653e-03 2.0339713731130477e-01  1.0068502482428554e-02 -5.5540359033528185e-03 2.5775026444149324e-01  1.0759418652192302e-02 -6.7557376666967477e-03 3.1626981492715045e-01  1.1333562893864745e-02 -8.0222056685160543e-03 3.7828234026120394e-01  1.1797678185795073e-02 -9.3408809876213972e-03 4.4314916197881316e-01  1.2159881346199860e-02 -1.0700119363721472e-02 5.1027395528126585e-01  1.2429746050292739e-02 -1.2089356557723956e-02 5.7911081071505255e-01  1.2618372271797821e-02 -1.3499283737685478e-02 6.4917271381298702e-01  1.2738439382961009e-02 -1.4922030946646583e-02 7.2004036451828524e-01  1.2804237017691280e-02 -1.6351359035515808e-02 7.9137124995664876e-01  1.2831709854943184e-02 -1.7782843339411235e-02 8.6290891322524899e-01  1.2838909287893390e-02 -1.9213797582985817e-02 9.3449274654404324e-01  0.0000000000000000e+00 0.0000000000000000e+00 0.0000000000000000e+00  1.6568488727187686e-03 -2.1511141905531284e-04 4.9895311626849941e-03  3.3089440159381769e-03 -5.6567771182615282e-04 1.9044402063600089e-02  4.8198223378107903e-03 -1.0800238665781617e-03 4.1628646041732553e-02  6.1948790401077586e-03 -1.7425733669418643e-03 7.2033752646467358e-02  7.4332130389089500e-03 -2.5397795674086555e-03 1.0951842963003537e-01  8.5357881022994578e-03 -3.4576489454610179e-03 1.5333878690996958e-01  9.5048160995332906e-03 -4.4818628327302126e-03 2.0275807796853837e-01  1.0343582687266997e-02 -5.5982229406012956e-03 2.5705394702881873e-01  1.1056484899506084e-02 -6.7929278997857275e-03 3.1552497084777026e-01  1.1649128871967793e-02 -8.0527612077926237e-03 3.7749732024504173e-01  1.2128434856038454e-02 -9.3652553219648847e-03 4.4233184159514938e-01  1.2502735220700684e-02 -1.0718855011343481e-02 5.0943163502899746e-01  1.2781860619922413e-02 -1.2103086502876276e-02 5.7825011089601930e-01  1.2977211971731337e-02 -1.3508733397129505e-02 6.4829946498317770e-01  1.3101815983258365e-02 -1.4928018494555146e-02 7.1915949520336653e-01  1.3170355687843849e-02 -1.6354793559374255e-02 7.9048667514468995e-01  1.3199186211899057e-02 -1.7784744706334142e-02 8.6202341738584776e-01  1.3206796305437916e-02 -1.9215439817181480e-02 9.3360778093906827e-01  0.0000000000000000e+00 0.0000000000000000e+00 0.0000000000000000e+00  1.6724892156692898e-03 -2.8242100007861082e-04 4.8328783575430764e-03  3.3689778795490920e-03 -6.4390982859213665e-04 1.8734376477841104e-02  4.9259446899785229e-03 -1.1598147210727637e-03 4.1204855105266266e-02  6.3429643050969420e-03 -1.8182493310678056e-03 7.1519065272373616e-02  7.6188808865194314e-03 -2.6088788911926620e-03 1.0892713374747263e-01  8.7549751837427883e-03 -3.5192829778396733e-03 1.5268188196381421e-01  9.7536289973855009e-03 -4.5358260694437777e-03 2.0204521849455118e-01  1.0618245298533856e-02 -5.6446141042947500e-03 2.5629407451465647e-01  1.1353340871127869e-02 -6.8320068610326062e-03 3.1472648222096949e-01  1.1964664496589056e-02 -8.0848988654888040e-03 3.7666806801308728e-01  1.2459311170430811e-02 -9.3909181999512689e-03 4.4147906855805275e-01  1.2845825438940164e-02 -1.0738602482747396e-02 5.0856188132351354e-01  1.3134291221689914e-02 -1.2117572224730396e-02 5.7736910813086795e-01  1.3336406585616077e-02 -1.3518707550450896e-02 6.4741202397717623e-01  1.3465542471804785e-02 -1.4934328754856426e-02 7.1826939137715962e-01  1.3536779556771843e-02 -1.6358382386997675e-02 7.8959653678404185e-01  1.3566904351814622e-02 -1.7786667085701060e-02 8.6113461964481297e-01  1.3574824756313315e-02 -1.9217095041410327e-02 9.3272033179709557e-01  0.0000000000000000e+00 0.0000000000000000e+00 0.0000000000000000e+00  1.6752368682507025e-03 -3.6690860486734246e-04 4.5937952409129557e-03  3.4177728488521057e-03 -7.3324312989975270e-04 1.8316948084182116e-02  5.0223207487604211e-03 -1.2477122390636059e-03 4.0671538719981609e-02  6.4822587702502450e-03 -1.9004430506912580e-03 7.0900340861425645e-02  7.7966854961207836e-03 -2.6835383627481831e-03 1.0824063860701234e-01  8.9672554133726264e-03 -3.5857510715142176e-03 1.5193992298276532e-01  9.9964900241708444e-03 -4.5939819310637457e-03 2.0125779914775624e-01  1.0887885777827766e-02 -5.6945953467068657e-03 2.5547003405181046e-01  1.1646064028257198e-02 -6.8741002009872704e-03 3.1387387493921781e-01  1.2276904148453314e-02 -8.1195014727128874e-03 3.7579424296710445e-01  1.2787664402777807e-02 -9.4185266143468494e-03 4.4059063054682934e-01  1.3187089848158298e-02 -1.0759811701714668e-02 5.0766460382936229e-01  1.3485505648355524e-02 -1.2133078106336081e-02 5.7646782621937487e-01  1.3694894672620764e-02 -1.3529