<?xml version="1.0"?>
<VTKFile type="UnstructuredGrid"  version="0.1"  >
<UnstructuredGrid>
<Piece  NumberOfPoints="760" NumberOfCells="3024">
<Points>
<DataArray  type="Float64"  NumberOfComponents="3"  format="ascii">0 0 0  0.05555555555555555 0 0  0.1111111111111111 0 0  0.1666666666666667 0 0  0.2222222222222222 0 0  0.2777777777777778 0 0  0.3333333333333333 0 0  0.3888888888888889 0 0  0.4444444444444444 0 0  0.5 0 0  0.5555555555555556 0 0  0.6111111111111112 0 0  0.6666666666666666 0 0  0.7222222222222222 0 0  0.7777777777777778 0 0  0.8333333333333334 0 0  0.8888888888888888 0 0  0.9444444444444444 0 0  1 0 0  0 0.01428571428571429 0  0.05555555555555555 0.01428571428571429 0  0.1111111111111111 0.01428571428571429 0  0.1666666666666667 0.01428571428571429 0  0.2222222222222222 0.01428571428571429 0  0.2777777777777778 0.01428571428571429 0  0.3333333333333333 0.01428571428571429 0  0.3888888888888889 0.01428571428571429 0  0.4444444444444444 0.01428571428571429 0  0.5 0.01428571428571429 0  0.5555555555555556 0.01428571428571429 0  0.6111111111111112 0.01428571428571429 0  0.6666666666666666 0.01428571428571429 0  0.7222222222222222 0.01428571428571429 0  0.7777777777777778 0.01428571428571429 0  0.8333333333333334 0.01428571428571429 0  0.8888888888888888 0.01428571428571429 0  0.9444444444444444 0.01428571428571429 0  1 0.01428571428571429 0  0 0.02857142857142857 0  0.05555555555555555 0.02857142857142857 0  0.1111111111111111 0.02857142857142857 0  0.1666666666666667 0.02857142857142857 0  0.2222222222222222 0.02857142857142857 0  0.2777777777777778 0.02857142857142857 0  0.3333333333333333 0.02857142857142857 0  0.3888888888888889 0.02857142857142857 0  0.4444444444444444 0.02857142857142857 0  0.5 0.02857142857142857 0  0.5555555555555556 0.02857142857142857 0  0.6111111111111112 0.02857142857142857 0  0.6666666666666666 0.02857142857142857 0  0.7222222222222222 0.02857142857142857 0  0.7777777777777778 0.02857142857142857 0  0.8333333333333334 0.02857142857142857 0  0.8888888888888888 0.02857142857142857 0  0.9444444444444444 0.02857142857142857 0  1 0.02857142857142857 0  0 0.04285714285714286 0  0.05555555555555555 0.04285714285714286 0  0.1111111111111111 0.04285714285714286 0  0.1666666666666667 0.04285714285714286 0  0.2222222222222222 0.04285714285714286 0  0.2777777777777778 0.04285714285714286 0  0.3333333333333333 0.04285714285714286 0  0.3888888888888889 0.04285714285714286 0  0.4444444444444444 0.04285714285714286 0  0.5 0.04285714285714286 0  0.5555555555555556 0.04285714285714286 0  0.6111111111111112 0.04285714285714286 0  0.6666666666666666 0.04285714285714286 0  0.7222222222222222 0.04285714285714286 0  0.7777777777777778 0.04285714285714286 0  0.8333333333333334 0.04285714285714286 0  0.8888888888888888 0.04285714285714286 0  0.9444444444444444 0.04285714285714286 0  1 0.04285714285714286 0  0 0.05714285714285715 0  0.05555555555555555 0.05714285714285715 0  0.1111111111111111 0.05714285714285715 0  0.1666666666666667 0.05714285714285715 0  0.2222222222222222 0.05714285714285715 0  0.2777777777777778 0.05714285714285715 0  0.3333333333333333 0.05714285714285715 0  0.3888888888888889 0.05714285714285715 0  0.4444444444444444 0.05714285714285715 0  0.5 0.05714285714285715 0  0.5555555555555556 0.05714285714285715 0  0.6111111111111112 0.05714285714285715 0  0.6666666666666666 0.05714285714285715 0  0.7222222222222222 0.05714285714285715 0  0.7777777777777778 0.05714285714285715 0  0.8333333333333334 0.05714285714285715 0  0.8888888888888888 0.05714285714285715 0  0.9444444444444444 0.05714285714285715 0  1 0.05714285714285715 0  0 0.07142857142857142 0  0.05555555555555555 0.07142857142857142 0  0.1111111111111111 0.07142857142857142 0  0.1666666666666667 0.07142857142857142 0  0.2222222222222222 0.07142857142857142 0  0.2777777777777778 0.07142857142857142 0  0.3333333333333333 0.07142857142857142 0  0.3888888888888889 0.07142857142857142 0  0.4444444444444444 0.07142857142857142 0  0.5 0.07142857142857142 0  0.5555555555555556 0.07142857142857142 0  0.6111111111111112 0.07142857142857142 0  0.6666666666666666 0.07142857142857142 0  0.7222222222222222 0.07142857142857142 0  0.7777777777777778 0.07142857142857142 0  0.8333333333333334 0.07142857142857142 0  0.8888888888888888 0.07142857142857142 0  0.9444444444444444 0.07142857142857142 0  1 0.07142857142857142 0  0 0.08571428571428573 0  0.05555555555555555 0.08571428571428573 0  0.1111111111111111 0.08571428571428573 0  0.1666666666666667 0.08571428571428573 0  0.2222222222222222 0.08571428571428573 0  0.2777777777777778 0.08571428571428573 0  0.3333333333333333 0.08571428571428573 0  0.3888888888888889 0.08571428571428573 0  0.4444444444444444 0.08571428571428573 0  0.5 0.08571428571428573 0  0.5555555555555556 0.08571428571428573 0  0.6111111111111112 0.08571428571428573 0  0.6666666666666666 0.08571428571428573 0  0.7222222222222222 0.08571428571428573 0  0.7777777777777778 0.08571428571428573 0  0.8333333333333334 0.08571428571428573 0  0.8888888888888888 0.08571428571428573 0  0.9444444444444444 0.08571428571428573 0  1 0.08571428571428573 0  0 0.1 0  0.05555555555555555 0.1 0  0.1111111111111111 0.1 0  0.1666666666666667 0.1 0  0.2222222222222222 0.1 0  0.2777777777777778 0.1 0  0.3333333333333333 0.1 0  0.3888888888888889 0.1 0  0.4444444444444444 0.1 0  0.5 0.1 0  0.5555555555555556 0.1 0  0.6111111111111112 0.1 0  0.6666666666666666 0.1 0  0.7222222222222222 0.1 0  0.7777777777777778 0.1 0  0.8333333333333334 0.1 0  0.8888888888888888 0.1 0  0.9444444444444444 0.1 0  1 0.1 0  0 0 0.01  0.05555555555555555 0 0.01  0.1111111111111111 0 0.01  0.1666666666666667 0 0.01  0.2222222222222222 0 0.01  0.2777777777777778 0 0.01  0.3333333333333333 0 0.01  0.3888888888888889 0 0.01  0.4444444444444444 0 0.01  0.5 0 0.01  0.5555555555555556 0 0.01  0.6111111111111112 0 0.01  0.6666666666666666 0 0.01  0.7222222222222222 0 0.01  0.7777777777777778 0 0.01  0.8333333333333334 0 0.01  0.8888888888888888 0 0.01  0.9444444444444444 0 0.01  1 0 0.01  0 0.01428571428571429 0.01  0.05555555555555555 0.01428571428571429 0.01  0.1111111111111111 0.01428571428571429 0.01  0.1666666666666667 0.01428571428571429 0.01  0.2222222222222222 0.01428571428571429 0.01  0.2777777777777778 0.01428571428571429 0.01  0.3333333333333333 0.01428571428571429 0.01  0.3888888888888889 0.01428571428571429 0.01  0.4444444444444444 0.01428571428571429 0.01  0.5 0.01428571428571429 0.01  0.5555555555555556 0.01428571428571429 0.01  0.6111111111111112 0.01428571428571429 0.01  0.6666666666666666 0.01428571428571429 0.01  0.7222222222222222 0.01428571428571429 0.01  0.7777777777777778 0.01428571428571429 0.01  0.8333333333333334 0.01428571428571429 0.01  0.8888888888888888 0.01428571428571429 0.01  0.9444444444444444 0.01428571428571429 0.01  1 0.01428571428571429 0.01  0 0.02857142857142857 0.01  0.05555555555555555 0.02857142857142857 0.01  0.1111111111111111 0.02857142857142857 0.01  0.1666666666666667 0.02857142857142857 0.01  0.2222222222222222 0.02857142857142857 0.01  0.2777777777777778 0.02857142857142857 0.01  0.3333333333333333 0.02857142857142857 0.01  0.3888888888888889 0.02857142857142857 0.01  0.4444444444444444 0.02857142857142857 0.01  0.5 0.02857142857142857 0.01  0.5555555555555556 0.02857142857142857 0.01  0.6111111111111112 0.02857142857142857 0.01  0.6666666666666666 0.02857142857142857 0.01  0.7222222222222222 0.02857142857142857 0.01  0.7777777777777778 0.02857142857142857 0.01  0.8333333333333334 0.02857142857142857 0.01  0.8888888888888888 0.02857142857142857 0.01  0.9444444444444444 0.02857142857142857 0.01  1 0.02857142857142857 0.01  0 0.04285714285714286 0.01  0.05555555555555555 0.04285714285714286 0.01  0.1111111111111111 0.04285714285714286 0.01  0.1666666666666667 0.04285714285714286 0.01  0.2222222222222222 0.04285714285714286 0.01  0.2777777777777778 0.04285714285714286 0.01  0.3333333333333333 0.04285714285714286 0.01  0.3888888888888889 0.04285714285714286 0.01  0.4444444444444444 0.04285714285714286 0.01  0.5 0.04285714285714286 0.01  0.5555555555555556 0.04285714285714286 0.01  0.6111111111111112 0.04285714285714286 0.01  0.6666666666666666 0.04285714285714286 0.01  0.7222222222222222 0.04285714285714286 0.01  0.7777777777777778 0.04285714285714286 0.01  0.8333333333333334 0.04285714285714286 0.01  0.8888888888888888 0.04285714285714286 0.01  0.9444444444444444 0.04285714285714286 0.01  1 0.04285714285714286 0.01  0 0.05714285714285715 0.01  0.05555555555555555 0.05714285714285715 0.01  0.1111111111111111 0.05714285714285715 0.01  0.1666666666666667 0.05714285714285715 0.01  0.2222222222222222 0.05714285714285715 0.01  0.2777777777777778 0.05714285714285715 0.01  0.3333333333333333 0.05714285714285715 0.01  0.3888888888888889 0.05714285714285715 0.01  0.4444444444444444 0.05714285714285715 0.01  0.5 0.05714285714285715 0.01  0.5555555555555556 0.05714285714285715 0.01  0.6111111111111112 0.05714285714285715 0.01  0.6666666666666666 0.05714285714285715 0.01  0.7222222222222222 0.05714285714285715 0.01  0.7777777777777778 0.05714285714285715 0.01  0.8333333333333334 0.05714285714285715 0.01  0.8888888888888888 0.05714285714285715 0.01  0.9444444444444444 0.05714285714285715 0.01  1 0.05714285714285715 0.01  0 0.07142857142857142 0.01  0.05555555555555555 0.07142857142857142 0.01  0.1111111111111111 0.07142857142857142 0.01  0.1666666666666667 0.07142857142857142 0.01  0.2222222222222222 0.07142857142857142 0.01  0.2777777777777778 0.07142857142857142 0.01  0.3333333333333333 0.07142857142857142 0.01  0.3888888888888889 0.07142857142857142 0.01  0.4444444444444444 0.07142857142857142 0.01  0.5 0.07142857142857142 0.01  0.5555555555555556 0.07142857142857142 0.01  0.6111111111111112 0.07142857142857142 0.01  0.6666666666666666 0.07142857142857142 0.01  0.7222222222222222 0.07142857142857142 0.01  0.7777777777777778 0.07142857142857142 0.01  0.8333333333333334 0.07142857142857142 0.01  0.8888888888888888 0.07142857142857142 0.01  
[...]
<PointData  Vectors="f_33"> 
<DataArray  type="Float64"  Name="f_33"  NumberOfComponents="3" format="ascii">0.0000000000000000e+00 0.0000000000000000e+00 0.0000000000000000e+00  1.6504988845430634e-03 9.7868477261614525e-05 2.3827775852683828e-03  3.0792417159026123e-03 -9.2372111918969673e-05 9.1335118078147790e-03  4.3824366156963177e-03 -3.9921870282603279e-04 1.9943366245463577e-02  5.5621137866196076e-03 -7.9342608718758741e-04 3.4424851588019154e-02  6.6202290453822952e-03 -1.2594005422799262e-03 5.2211024990108615e-02  7.5584212282628635e-03 -1.7865205273886568e-03 7.2942827995471041e-02  8.3791247004802293e-03 -2.3659495769538471e-03 9.6268565425634736e-02  9.0857413875629050e-03 -2.9896528664096083e-03 1.2184562721067273e-01  9.6826961956933810e-03 -3.6500963824827527e-03 1.4934300312937404e-01  1.0175496081533378e-02 -4.3401871235142723e-03 1.7844421843746239e-01  1.0570790729150046e-02 -5.0533022161620665e-03 2.0885055309044137e-01  1.0876426811541566e-02 -5.7833526291352884e-03 2.4028447104082487e-01  1.1101492786006226e-02 -6.5248613824553823e-03 2.7249321042827435e-01  1.1256353799881953e-02 -7.2730487805062810e-03 3.0525249678647270e-01  1.1352678045920096e-02 -8.0239224805918347e-03 3.3837034803733806e-01  1.1403463822190851e-02 -8.7743719010346024e-03 3.7169094693418486e-01  1.1423096561567449e-02 -9.5222600478546224e-03 4.0509860093715372e-01  1.1427299957866441e-02 -1.0266589971647392e-02 4.3852221316374623e-01  0.0000000000000000e+00 0.0000000000000000e+00 0.0000000000000000e+00  1.5770716460986856e-03 1.6402030478181719e-05 2.4530141298890621e-03  3.0412266621579797e-03 -1.6453677269747131e-04 9.1832330886457599e-03  4.3746842982463089e-03 -4.6450299445627698e-04 1.9943710082722232e-02  5.5825327143226352e-03 -8.5206083434811195e-04 3.4370684162774820e-02  6.6665759499553758e-03 -1.3115002126043614e-03 5.2103732145028572e-02  7.6284601708340111e-03 -1.8322170776332979e-03 7.2785975128087141e-02  8.4706327862966724e-03 -2.4054229381787638e-03 9.6066495765754531e-02  9.1965040605583789e-03 -3.0231374128889960e-03 1.2160296348392756e-01  9.8105103097258072e-03 -3.6778844662171467e-03 1.4906444627449839e-01  1.0318180042889386e-02 -4.3626324869015000e-03 1.7813445130406710e-01  1.0726198731648462e-02 -5.0708230730463046e-03 2.0851418103637923e-01  1.1042465573891174e-02 -5.7964342084848818e-03 2.3992597440602076e-01  1.1276140074465786e-02 -6.5340578632301109e-03 2.7211689965271829e-01  1.1437678337651074e-02 -7.2789845312481493e-03 3.0486246665164241e-01  1.1538859888594816e-02 -8.0272924439753913e-03 3.3797042888213724e-01  1.1592811011769025e-02 -8.7759409277247766e-03 3.7128464860023191e-01  1.1614066686269277e-02 -9.5228537953010867e-03 4.0468903092126962e-01  1.1618817326463395e-02 -1.0266894483334267e-02 4.3811188235203202e-01  0.0000000000000000e+00 0.0000000000000000e+00 0.0000000000000000e+00  1.5734332149956931e-03 -4.5871665887088235e-05 2.4808284414912373e-03  3.0536753019410230e-03 -2.3519867042526058e-04 9.1842943242970241e-03  4.4101625748944372e-03 -5.3282106778135383e-04 1.9897289872301577e-02  5.6408028548842722e-03 -9.1499015944813045e-04 3.4273788614526277e-02  6.7460422207922593e-03 -1.3680602647402193e-03 5.1958187690344181e-02  7.7271941821708580e-03 -1.8821721929658843e-03 7.2595391824484490e-02  8.5866254259533235e-03 -2.4488260112665561e-03 9.5835135645084168e-02  9.3277447971076739e-03 -3.0601796942787357e-03 1.2133530261111819e-01  9.9550223341655520e-03 -3.7088471075512283e-03 1.4876498908347360e-01  1.0474043959578827e-02 -4.3878717133496170e-03 1.7780763765486141e-01  1.0891573064862780e-02 -5.0907667318975426e-03 2.0816432660617165e-01  1.1215606699338855e-02 -5.8115820246737483e-03 2.3955722203419577e-01  1.1455422489792580e-02 -6.5449826241874027e-03 2.7173317331917779e-01  1.1621615483343350e-02 -7.2863330148898297e-03 3.0446742502530511e-01  1.1726124837715849e-02 -8.0317852227981337e-03 3.3756741700757031e-01  1.1782252974670048e-02 -8.7783708549860028e-03 3.7087664557476985e-01  1.1804716540594552e-02 -9.5240846887839417e-03 4.0427858500791791e-01  1.1809926190367982e-02 -1.0267762188537140e-02 4.3770097362063853e-01  0.0000000000000000e+00 0.0000000000000000e+00 0.0000000000000000e+00  1.5812572233068044e-03 -9.9724131854072537e-05 2.4731186305702261e-03  3.0776465202321753e-03 -3.0358565239003646e-04 9.1350732824417302e-03  4.4563440930007981e-03 -6.0242924682040204e-04 1.9800158009752662e-02  5.7088777618928589e-03 -9.8042527560865313e-04 3.4129429341555377e-02  6.8343028843496087e-03 -1.4274150758968953e-03 5.1769674719442910e-02  7.8336786425483272e-03 -1.9348540908820456e-03 7.2366693689963846e-02  8.7093335699353989e-03 -2.4947561808950454e-03 9.5570543328532542e-02  9.4646960285743875e-03 -3.0995036766329012e-03 1.2103917724294540e-01  1.0104283568328010e-02 -3.7418338056256929e-03 1.4844163814616071e-01  1.0633751207720570e-02 -4.4148791262323692e-03 1.7746124256169116e-01  1.1059951505008910e-02 -5.1122312966558007e-03 2.0779888916847303e-01  1.1390990691184035e-02 -5.8280162419469218e-03 2.3917651689424818e-01  1.1636276052628241e-02 -6.5569753300832555e-03 2.7134070149185957e-01  1.1806553351350059e-02 -7.2945500100844579e-03 3.0406636688677940e-01  1.1913933780122361e-02 -8.0369688203485411e-03 3.3716058430849166e-01  1.1971909793926289e-02 -8.7813378664514576e-03 3.7046643207400676e-01  1.1995387065923232e-02 -9.5257285579357746e-03 4.0386690953789833e-01  1.2000966772868382e-02 -1.0269056365318514e-02 4.3728915473129065e-01  0.0000000000000000e+00 0.0000000000000000e+00 0.0000000000000000e+00  1.5861905396033968e-03 -1.5241014656636561e-04 2.4327042881905126e-03  3.1024916265579953e-03 -3.7175430709229942e-04 9.0379642396668305e-03  4.5049141015573941e-03 -6.7317814115485221e-04 1.9652550355259493e-02  5.7797655179456994e-03 -1.0476356318192795e-03 3.3937026227533217e-02  6.9253722182947806e-03 -1.4887004006273253e-03 5.1537330729084868e-02  7.9428107157903452e-03 -1.9894058766031231e-03 7.2098960123854722e-02  8.8344702930447175e-03 -2.5424085110644715e-03 9.5271831190158168e-02  9.6038347431694603e-03 -3.1403703102066464e-03 1.2071376751674115e-01  1.0255483422948240e-02 -3.7761749977875247e-03 1.4809365343415612e-01  1.0795146980296093e-02 -4.4430543109014271e-03 1.7709460865625234e-01  1.1229770815734088e-02 -5.1346833604017086e-03 2.0741729284135196e-01  1.1567573021370613e-02 -5.8452672546654835e-03 2.3878336140008888e-01  1.1818092937586450e-02 -6.5696261679690574e-03 2.7093906038265281e-01  1.1992229452787308e-02 -7.3032808693240031e-03 3.0365893661541188e-01  1.2102268860435691e-02 -8.0425389212211533e-03 3.3674963635057248e-01  1.2161899869080320e-02 -8.7845832279619552e-03 3.7005376566258713e-01  1.2186227206058520e-02 -9.5275664662931026e-03 4.0345379975028323e-01  1.2192065195388619e-02 -1.0270569398102922e-02 4.3687626133553181e-01  0.0000000000000000e+00 0.0000000000000000e+00 0.0000000000000000e+00  1.5830012073718373e-03 -2.1009453324787091e-04 2.3581104891395397e-03  3.1230946376938221e-03 -4.4303508754674008e-04 8.8926715396943929e-03  4.5513933665410553e-03 -7.4628015210687841e-04 1.9454314003029570e-02  5.8494806143725231e-03 -1.1169172460862480e-03 3.3696265313348898e-02  7.0157264158155416e-03 -1.5518759832996248e-03 5.1260748766557368e-02  8.0515192701048777e-03 -2.0456654895007345e-03 7.1791765654053499e-02  8.9594036581285841e-03 -2.5915763943690348e-03 9.4938593533767920e-02  9.7429501939029772e-03 -3.1825566350702867e-03 1.2035870405667529e-01  1.0406810302474366e-02 -3.8116417683470663e-03 1.4772070822321146e-01  1.0956792544835009e-02 -4.4721662642541529e-03 1.7670745374633895e-01  1.1399934294309614e-02 -5.1578913076701580e-03 2.0701929984409753e-01  1.1744563410466664e-02 -5.8631034572020468e-03 2.3837756102520460e-01  1.2000348754031553e-02 -6.5827038939288056e-03 2.7052809686278478e-01  1.2178339692983152e-02 -7.3122950560247585e-03 3.0324501993662162e-01  1.2290995287143619e-02 -8.0482664372566633e-03 3.3633449403573640e-01  1.2352202241407366e-02 -8.7878810991527528e-03 3.6963859627815515e-01  1.2377277518936781e-02 -9.5293776623415379e-03 4.0303922588696972e-01  1.2383278773517661e-02 -1.0272065744729768e-02 4.3646228530412917e-01  0.0000000000000000e+00 0.0000000000000000e+00 0.0000000000000000e+00  1.5642954760174124e-03 -2.7811800825804810e-04 2.2422679504155402e-03  3.1308878546769301e-03 -5.2058248711466036e-04 8.6953169346016112e-03  4.5871321555896113e-03 -8.2325618097907067e-04 1.9203510325475414e-02  5.9097839266834158e-03 -1.1889356042446705e-03 3.3405878340099303e-02  7.0978167027498009e-03 -1.6172277177916069e-03 5.0938953586357742e-02  8.1530485322463871e-03 -2.1037506059308057e-03 7.1444316582051262e-02  9.0781966774560567e-03 -2.6422946764285259e-03 9.4570181327299566e-02  9.8769170309714101e-03 -3.2260482828066830e-03 1.1997346700560831e-01  1.0553926409631483e-02 -3.8481840272541149e-03 1.4732240238515840e-01  1.1115102230263763e-02 -4.5021350982849227e-03 1.7629948915973631e-01  1.1567563456270408e-02 -5.1817486970647053e-03 2.0660472419297796e-01  1.1919736579563314e-02 -5.8813943047911071e-03 2.3795902259632892e-01  1.2181408405285416e-02 -6.5960562346887418e-03 2.7010779931637480e-01  1.2363766936801208e-02 -7.3214211351446861e-03 3.0282467397444912e-01  1.2479431826603170e-02 -8.0539637625028204e-03 3.3591526831378343e-01  1.2542478216002172e-02 -8.7910320705429906e-03 3.6922106985650027e-01  1.2568445239219928e-02 -9.5309512903652659e-03 4.0262334568731523e-01  1.2574623581717008e-02 -1.0273308706396027e-02 4.3604737648473402e-01  0.0000000000000000e+00 0.0000000000000000e+00 0.0000000000000000e+00  1.4982125666534948e-03 -3.5223763437697395e-04 2.0817969380337487e-03  3.0901477400410251e-03 -6.0030451802532269e-04 8.4461923286146389e-03  4.5770501469819223e-03 -9.0010690556768845e-04 1.8902502926332238e-02  5.9277534844322235e-03 -1.2598534241954962e-03 3.3068847447378952e-02  7.1416250850799227e-03 -1.6812004479569251e-03 5.0575019331923432e-02  8.2205516637652593e-03 -2.1604613676626263e-03 7.1059571657588208e-02  9.1672304761566386e-03 -2.6917475224630628e-03 9.4169357864007500e-02  9.9853040373780039e-03 -3.2684161127907352e-03 1.1956059304319240e-01  1.0679492865026570e-02 -3.8837482412747144e-03 1.4690103405315211e-01  1.1255694046994764e-02 -4.5312637539830936e-03 1.7587277064985524e-01  1.1721062328231878e-02 -5.2048900577821005e-03 2.0617537945990025e-01  1.2084077204226815e-02 -5.8990760938330685e-03 2.3752932032486554e-01  1.2354596994984321e-02 -6.6088867238587312e-03 2.6967950760650100e-01  1.2543900930286473e-02 -7.3300906262602781e-03 3.0239901133503333e-01  1.2664720944682023e-02 -8.0592462304040907e-03 3.3549285362138470e-01  1.2731267901128964e-02 -8.7937888777001056e-03 3.6880187239562656e-01  1.2759281882887387e-02 -9.5321177506238180e-03 4.0220661564935212e-01  1.2766130653284410e-02 -1.0274144845804701e-02 4.3563174220239270e-01  0.0000000000000000e+00 0.0000000000000000e+00 0.0000000000000000e+00  7.5808606990665733e-04 3.5162373543666844e-05 2.3129601370267365e-03  1.4375252377764490e-03 -1.3950780350754205e-04 9.0689880028974861e-03  2.0540515863164003e-03 -4.0965154241353924e-04 1.9884115210787350e-02  2.6126075102135978e-03 -7.6424673131770355e-04 3.4371083587139084e-02  3.1142205729105905e-03 -1.1918790771224593e-03 5.2162783368642648e-02  3.5595017038985823e-03 -1.6832766464948904e-03 7.2900074845354879e-02  3.9494935079116937e-03 -2.2300913104993068e-03 9.6231199484123883e-02  4.2857355599210554e-03 -2.8244690158436276e-03 1.2181349420739043e-01  4.5702648287739142e-03 -3.4589309647418335e-03 1.4931589862636582e-01  4.8056315971859659e-03 -4.1263779043821053e-03 1.7842188693632841e-01  4.9949237566043088e-03 -4.8201415893118042e-03 2.0883268593993418e-01  5.1417910609023064e-03 -5.5340554552973723e-03 2.4027070422732832e-01  5.2504659583056138e-03 -6.2625341070100910e-03 2.7248312262700064e-01  5.3257800973715722e-03 -7.0006576343930324e-03 3.0524560775539544e-01  5.3731770852292506e-03 -7.7442593135796057e-03 3.3836611727432009e-01  5.3987258142574896e-03 -8.4900143847628975e-03 3.7168877170259712e-01  5.4091451414183681e-03 -9.2355130643317421e-03 4.0509780967802228e-01  5.4116889280790203e-03 -9.9793789014960849e-03 4.3852186456920700e-01  0.0000000000000000e+00 0.0000000000000000e+00 0.0000000000000000e+00  7.4505140543066489e-04 -1.5626244812268198e-05 2.3761255370223686e-03  1.4607912504300898e-03 -1.8064434809047860e-04 9.1180990189965033e-03  2.1022632670659957e-03 -4.4701024695131993e-04 1.9884458855317640e-02  2.6835724422938725e-03 -7.9791229561767467e-04 3.4317086335081022e-02  3.2056561826896892e-03 -1.2218797414809057e-03 5.2055683776809067e-02  3.6692322704549554e-03 -1.7096633787678556e-03 7.2743392090565365e-02  4.0754197200590092e-03 -2.2529522161570900e-03 9.6029262331021797e-02  4.4258183853636470e-03 -2.8439271380573967e-03 1.2157092259760352e-01  4.7225270045639298e-03 -3.4751434963531534e-03 1.4903739546495567e-01  4.9681691970071091e-03 -4.1395370089482757e-03 1.7811213923384217e-01  5.1659225374280854e-03 -4.8304757554496792e-03 2.0849630445263778e-01  5.3195452321969598e-03 -5.5418308291796592e-03 2.3991217557103453e-01  5.4333984103879492e-03 -6.2680555973933134e-03 2.7210676426085950e-01  5.5124636380213038e-03 -7.0042697141463545e-03 3.0485552218998607e-01  5.5623559146760863e-03 -7.7463465822342897e-03 3.3796614339888309e-01  5.5893347027901772e-03 -8.4910024000235552e-03 3.7128242934938566e-01  5.6003346500951784e-03 -9.2358683397304533e-03 4.0468821644777242e-01  5.6030675331447191e-03 -9.9795068485832757e-03 4.3811161067735638e-01  0.0000000000000000e+00 0.0000000000000000e+00 0.0000000000000000e+00  7.5324375376600340e-04 -4.9671393778489931e-05 2.4014579416004860e-03  1.4898326645941574e-03 -2.1749820274323610e-04 9.1161728406114056e-03  2.1547244709003901e-03 -4.8234643652114424e-04 1.9836545446431444e-02  2.7577500002325334e-03 -8.3033652609090271e-04 3.4219259942678305e-02  3.2995876151672740e-03 -1.2509841118119355e-03 5.1909458744088845e-02  3.7808789984250615e-03 -1.7353557936854562e-03 7.2552266697704426e-02  4.2027550701080763e-03 -2.2752689967566364e-03 9.5797458052429785e-02  4.5668563454376900e-03 -2.8629689525278708e-03 1.2130289922079025e-01  4.8753399498130730e-03 -3.4910548298965095e-03 1.4873764933467609e-01  5.1309056146316362e-03 -4.1525000533661829e-03 1.7778510462252617e-01  5.3368257679068222e-03 -4.8407091762409267e-03 2.0814629186860897e-01  5.4969731552677306e-03 -5.5495901004152821e-03 2.3954332231513367e-01  5.6158439740686978e-03 -6.2736337002531929e-03 2.7172298809027212e-01  5.6985760758968308e-03 -7.0079976782672212e-03 3.0446047471972687e-01  5.7509619402585244e-03 -7.7485935589710576e-03 3.3756316172495543e-01  5.7794566183782623e-03 -8.4921760452510171e-03 3.7087448398117906e-01  5.7912041590788893e-03 -9.2364196589939974e-03 4.0427784714440890e-01  5.7942140796646219e-03 -9.9798803252241792e-03 4.3770080926926591e-01  0.0000000000000000e+00 0.0000000000000000e+00 0.0000000000000000e+00  7.6766809057258621e-04 -7.8250974869067285e-05 2.3918793403806746e-03  1.5240829727154357e-03 -2.5204706412691134e-04 9.0647113386731204e-03  2.2115887595697457e-03 -5.1720976445042432e-04 1.9737825576376721e-02  2.8358538594791503e-03 -8.6306608822256381e-04 3.4073762881834044e-02  3.3969829033671426e-03 -1.2806422500877233e-03 5.1720056721870973e-02  3.8955297829226898e-03 -1.7616595514871503e-03 7.2322835438539665e-02  4.3326471862804106e-03 -2.2981864839954902e-03 9.5532249758829305e-02  4.7100225033028867e-03 -2.8825764989727073e-03 1.2100625818371931e-01  5.0298763986545503e-03 -3.5074885117504402e-03 1.4841387409328108e-01  5.2949896626685684e-03 -4.1659397449868660e-03 1.7743837003369353e-01  5.5087345761436575e-03 -4.8513737376439086e-03 2.0778059346966768e-01  5.6751035238413539e-03 -5.5577363913911016e-03 2.3916242794281406e-01  5.7987329509795651e-03 -6.2795567912655855e-03 2.7133039109707374e-01  5.8849222332871941e-03 -7.0120311696080274e-03 3.0405934682061175e-01  5.9396469199752356e-03 -7.7511092896653524e-03 3.3715630495472126e-01  5.9695641680643941e-03 -8.4935836828479543e-03 3.7046428173850249e-01  5.9820271524835354e-03 -9.2371744604598845e-03 4.0386620947771446e-01  5.9852875340165911e-03 -9.9804954004765242e-03 4.3728905852088967e-01  0.0000000000000000e+00 0.0000000000000000e+00 0.0000000000000000e+00  7.8119543857303720e-04 -1.0650983193193304e-04 2.3507683284634505e-03  1.5592430534340659e-03 -2.8662987981970895e-04 8.9661850748082896e-03  2.2697761930106338e-03 -5.5284618447807980e-04 1.9588852403233253e-02  2.9153969430959791e-03 -8.9689060861940944e-04 3.3880243726463949e-02  3.4957624689267311e-03 -1.3114630725409289e-03 5.1486788729854488e-02  4.0114558221804692e-03 -1.7890754989136070e-03 7.2054317582462613e-02  4.4636877086235635e-03 -2.3221197261337223e-03 9.5232866810214284e-02  4.8542048970785599e-03 -2.9030876512913246e-03 1.2068027826314461e-01  5.1852968385547663e-03 -3.5247103931184136e-03 1.4806541210068305e-01  5.4598281494424462e-03 -4.1800544452520903e-03 1.7707134553189505e-01  5.6812727940285974e-03 -4.8626051547144824e-03 2.0739868695780900e-01  5.8537442943856731e-03 -5.5663482669113390e-03 2.3876903574713768e-01  5.9820207439047488e-03 -6.2858525839542762e-03 2.7092857893605576e-01  6.0715644562913326e-03 -7.0163542874549841e-03 3.0365180230782224e-01  6.1285359670556500e-03 -7.7538427179884373e-03 3.3674528965867179e-01  6.1597989959457930e-03 -8.4951488048866219e-03 3.7005158422578771e-01  6.1729210012311294e-03 -9.2380401204476530e-03 4.0345309636108367e-01  6.1763793029507227e-03 -9.9812437312034284e-03 4.3687618731936639e-01  0.0000000000000000e+00 0.0000000000000000e+00 0.0000000000000000e+00  7.9092903698460538e-04 -1.3834308355936079e-04 2.2772166001185428e-03  1.5923735430761808e-03 -3.2353162540725843e-04 8.8205906560741374e-03  2.3268375236813825e-03 -5.9041608025986903e-04 1.9389906240502106e-02  2.9941953031059781e-03 -9.3246194246757131e-04 3.3638769861618983e-02  3.5939968650090409e-03 -1.3438823817536339e-03 5.1209560901528756e-02  4.1269823604773792e-03 -1.8179332966188045e-03 7.1746548829293030e-02  4.5944516634535762e-03 -2.3473304514667020e-03 9.4899122525955337e-02  4.9982185350282878e-03 -2.9247103891746873e-03 1.2032477218818156e-01  5.3406430842133342e-03 -3.5428807519508648e-03 1.4769208519155802e-01  5.6246736069593094e-03 -4.1949601301560892e-03 1.7668386675416964e-01  5.8538847401835422e-03 -4.8744778226366145e-03 2.0700042449538311e-01  6.0325097678519462e-03 -5.5754613211342124e-03 2.3836301636274257e-01  6.1654669174057196e-03 -6.2925210038921649e-03 2.7051744231452890e-01  6.2583798945412784e-03 -7.0209349451602707e-03 3.0323775326307234e-01  6.3175929804792060e-03 -7.7567342600805720e-03 3.3633004985866022e-01  6.3501785657486881e-03 -8.4967900194209359e-03 3.6963634554772506e-01  6.3639283996216123e-03 -9.2389178694304054e-03 4.0303847687330741e-01  6.3675376067162505e-03 -9.9820000242067958e-03 4.3646218372821216e-01  0.0000000000000000e+00 0.0000000000000000e+00 0.0000000000000000e+00  7.9467064211375012e-04 -1.7845628104839459e-04 2.1649155571767911e-03  1.6202931545853140e-03 -3.6584295626828771e-04 8.6245576790751639e-03  2.3793942253247237e-03 -6.3196231697003542e-04 1.9139592478119232e-02  3.0689429061021372e-03 -9.7123927064901431e-04 3.3348576943204832e-02  3.6886198352334607e-03 -1.3790361314396352e-03 5.0887830364819454e-02  4.2393488770767632e-03 -1.8491641533929506e-03 7.1399097123301725e-02  4.7225045133013318e-03 -2.3745940551259514e-03 9.4530664742794479e-02  5.1399560598847961e-03 -2.9480857744804082e-03 1.1993945767297773e-01  5.4941270887004538e-03 -3.5625180605423261e-03 1.4729367661609319e-01  5.7880439937762901e-03 -4.2110615138321542e-03 1.7627577950347520e-01  6.0253769080630187e-03 -4.8872912533757217e-03 2.0658571146777627e-01  6.2104737350165383e-03 -5.5852791800182228e-03 2.3794433133346085e-01  6.3483876373489371e-03 -6.2996802852762672e-03 2.7009699485494987e-01  6.4448984520753139e-03 -7.0258