<?xml version="1.0"?>
<VTKFile type="UnstructuredGrid"  version="0.1"  >
<UnstructuredGrid>
<Piece  NumberOfPoints="760" NumberOfCells="3024">
<Points>
<DataArray  type="Float64"  NumberOfComponents="3"  format="ascii">0 0 0  0.05555555555555555 0 0  0.1111111111111111 0 0  0.1666666666666667 0 0  0.2222222222222222 0 0  0.2777777777777778 0 0  0.3333333333333333 0 0  0.3888888888888889 0 0  0.4444444444444444 0 0  0.5 0 0  0.5555555555555556 0 0  0.6111111111111112 0 0  0.6666666666666666 0 0  0.7222222222222222 0 0  0.7777777777777778 0 0  0.8333333333333334 0 0  0.8888888888888888 0 0  0.9444444444444444 0 0  1 0 0  0 0.01428571428571429 0  0.05555555555555555 0.01428571428571429 0  0.1111111111111111 0.01428571428571429 0  0.1666666666666667 0.01428571428571429 0  0.2222222222222222 0.01428571428571429 0  0.2777777777777778 0.01428571428571429 0  0.3333333333333333 0.01428571428571429 0  0.3888888888888889 0.01428571428571429 0  0.4444444444444444 0.01428571428571429 0  0.5 0.01428571428571429 0  0.5555555555555556 0.01428571428571429 0  0.6111111111111112 0.01428571428571429 0  0.6666666666666666 0.01428571428571429 0  0.7222222222222222 0.01428571428571429 0  0.7777777777777778 0.01428571428571429 0  0.8333333333333334 0.01428571428571429 0  0.8888888888888888 0.01428571428571429 0  0.9444444444444444 0.01428571428571429 0  1 0.01428571428571429 0  0 0.02857142857142857 0  0.05555555555555555 0.02857142857142857 0  0.1111111111111111 0.02857142857142857 0  0.1666666666666667 0.02857142857142857 0  0.2222222222222222 0.02857142857142857 0  0.2777777777777778 0.02857142857142857 0  0.3333333333333333 0.02857142857142857 0  0.3888888888888889 0.02857142857142857 0  0.4444444444444444 0.02857142857142857 0  0.5 0.02857142857142857 0  0.5555555555555556 0.02857142857142857 0  0.6111111111111112 0.02857142857142857 0  0.6666666666666666 0.02857142857142857 0  0.7222222222222222 0.02857142857142857 0  0.7777777777777778 0.02857142857142857 0  0.8333333333333334 0.02857142857142857 0  0.8888888888888888 0.02857142857142857 0  0.9444444444444444 0.02857142857142857 0  1 0.02857142857142857 0  0 0.04285714285714286 0  0.05555555555555555 0.04285714285714286 0  0.1111111111111111 0.04285714285714286 0  0.1666666666666667 0.04285714285714286 0  0.2222222222222222 0.04285714285714286 0  0.2777777777777778 0.04285714285714286 0  0.3333333333333333 0.04285714285714286 0  0.3888888888888889 0.04285714285714286 0  0.4444444444444444 0.04285714285714286 0  0.5 0.04285714285714286 0  0.5555555555555556 0.04285714285714286 0  0.6111111111111112 0.04285714285714286 0  0.6666666666666666 0.04285714285714286 0  0.7222222222222222 0.04285714285714286 0  0.7777777777777778 0.04285714285714286 0  0.8333333333333334 0.04285714285714286 0  0.8888888888888888 0.04285714285714286 0  0.9444444444444444 0.04285714285714286 0  1 0.04285714285714286 0  0 0.05714285714285715 0  0.05555555555555555 0.05714285714285715 0  0.1111111111111111 0.05714285714285715 0  0.1666666666666667 0.05714285714285715 0  0.2222222222222222 0.05714285714285715 0  0.2777777777777778 0.05714285714285715 0  0.3333333333333333 0.05714285714285715 0  0.3888888888888889 0.05714285714285715 0  0.4444444444444444 0.05714285714285715 0  0.5 0.05714285714285715 0  0.5555555555555556 0.05714285714285715 0  0.6111111111111112 0.05714285714285715 0  0.6666666666666666 0.05714285714285715 0  0.7222222222222222 0.05714285714285715 0  0.7777777777777778 0.05714285714285715 0  0.8333333333333334 0.05714285714285715 0  0.8888888888888888 0.05714285714285715 0  0.9444444444444444 0.05714285714285715 0  1 0.05714285714285715 0  0 0.07142857142857142 0  0.05555555555555555 0.07142857142857142 0  0.1111111111111111 0.07142857142857142 0  0.1666666666666667 0.07142857142857142 0  0.2222222222222222 0.07142857142857142 0  0.2777777777777778 0.07142857142857142 0  0.3333333333333333 0.07142857142857142 0  0.3888888888888889 0.07142857142857142 0  0.4444444444444444 0.07142857142857142 0  0.5 0.07142857142857142 0  0.5555555555555556 0.07142857142857142 0  0.6111111111111112 0.07142857142857142 0  0.6666666666666666 0.07142857142857142 0  0.7222222222222222 0.07142857142857142 0  0.7777777777777778 0.07142857142857142 0  0.8333333333333334 0.07142857142857142 0  0.8888888888888888 0.07142857142857142 0  0.9444444444444444 0.07142857142857142 0  1 0.07142857142857142 0  0 0.08571428571428573 0  0.05555555555555555 0.08571428571428573 0  0.1111111111111111 0.08571428571428573 0  0.1666666666666667 0.08571428571428573 0  0.2222222222222222 0.08571428571428573 0  0.2777777777777778 0.08571428571428573 0  0.3333333333333333 0.08571428571428573 0  0.3888888888888889 0.08571428571428573 0  0.4444444444444444 0.08571428571428573 0  0.5 0.08571428571428573 0  0.5555555555555556 0.08571428571428573 0  0.6111111111111112 0.08571428571428573 0  0.6666666666666666 0.08571428571428573 0  0.7222222222222222 0.08571428571428573 0  0.7777777777777778 0.08571428571428573 0  0.8333333333333334 0.08571428571428573 0  0.8888888888888888 0.08571428571428573 0  0.9444444444444444 0.08571428571428573 0  1 0.08571428571428573 0  0 0.1 0  0.05555555555555555 0.1 0  0.1111111111111111 0.1 0  0.1666666666666667 0.1 0  0.2222222222222222 0.1 0  0.2777777777777778 0.1 0  0.3333333333333333 0.1 0  0.3888888888888889 0.1 0  0.4444444444444444 0.1 0  0.5 0.1 0  0.5555555555555556 0.1 0  0.6111111111111112 0.1 0  0.6666666666666666 0.1 0  0.7222222222222222 0.1 0  0.7777777777777778 0.1 0  0.8333333333333334 0.1 0  0.8888888888888888 0.1 0  0.9444444444444444 0.1 0  1 0.1 0  0 0 0.01  0.05555555555555555 0 0.01  0.1111111111111111 0 0.01  0.1666666666666667 0 0.01  0.2222222222222222 0 0.01  0.2777777777777778 0 0.01  0.3333333333333333 0 0.01  0.3888888888888889 0 0.01  0.4444444444444444 0 0.01  0.5 0 0.01  0.5555555555555556 0 0.01  0.6111111111111112 0 0.01  0.6666666666666666 0 0.01  0.7222222222222222 0 0.01  0.7777777777777778 0 0.01  0.8333333333333334 0 0.01  0.8888888888888888 0 0.01  0.9444444444444444 0 0.01  1 0 0.01  0 0.01428571428571429 0.01  0.05555555555555555 0.01428571428571429 0.01  0.1111111111111111 0.01428571428571429 0.01  0.1666666666666667 0.01428571428571429 0.01  0.2222222222222222 0.01428571428571429 0.01  0.2777777777777778 0.01428571428571429 0.01  0.3333333333333333 0.01428571428571429 0.01  0.3888888888888889 0.01428571428571429 0.01  0.4444444444444444 0.01428571428571429 0.01  0.5 0.01428571428571429 0.01  0.5555555555555556 0.01428571428571429 0.01  0.6111111111111112 0.01428571428571429 0.01  0.6666666666666666 0.01428571428571429 0.01  0.7222222222222222 0.01428571428571429 0.01  0.7777777777777778 0.01428571428571429 0.01  0.8333333333333334 0.01428571428571429 0.01  0.8888888888888888 0.01428571428571429 0.01  0.9444444444444444 0.01428571428571429 0.01  1 0.01428571428571429 0.01  0 0.02857142857142857 0.01  0.05555555555555555 0.02857142857142857 0.01  0.1111111111111111 0.02857142857142857 0.01  0.1666666666666667 0.02857142857142857 0.01  0.2222222222222222 0.02857142857142857 0.01  0.2777777777777778 0.02857142857142857 0.01  0.3333333333333333 0.02857142857142857 0.01  0.3888888888888889 0.02857142857142857 0.01  0.4444444444444444 0.02857142857142857 0.01  0.5 0.02857142857142857 0.01  0.5555555555555556 0.02857142857142857 0.01  0.6111111111111112 0.02857142857142857 0.01  0.6666666666666666 0.02857142857142857 0.01  0.7222222222222222 0.02857142857142857 0.01  0.7777777777777778 0.02857142857142857 0.01  0.8333333333333334 0.02857142857142857 0.01  0.8888888888888888 0.02857142857142857 0.01  0.9444444444444444 0.02857142857142857 0.01  1 0.02857142857142857 0.01  0 0.04285714285714286 0.01  0.05555555555555555 0.04285714285714286 0.01  0.1111111111111111 0.04285714285714286 0.01  0.1666666666666667 0.04285714285714286 0.01  0.2222222222222222 0.04285714285714286 0.01  0.2777777777777778 0.04285714285714286 0.01  0.3333333333333333 0.04285714285714286 0.01  0.3888888888888889 0.04285714285714286 0.01  0.4444444444444444 0.04285714285714286 0.01  0.5 0.04285714285714286 0.01  0.5555555555555556 0.04285714285714286 0.01  0.6111111111111112 0.04285714285714286 0.01  0.6666666666666666 0.04285714285714286 0.01  0.7222222222222222 0.04285714285714286 0.01  0.7777777777777778 0.04285714285714286 0.01  0.8333333333333334 0.04285714285714286 0.01  0.8888888888888888 0.04285714285714286 0.01  0.9444444444444444 0.04285714285714286 0.01  1 0.04285714285714286 0.01  0 0.05714285714285715 0.01  0.05555555555555555 0.05714285714285715 0.01  0.1111111111111111 0.05714285714285715 0.01  0.1666666666666667 0.05714285714285715 0.01  0.2222222222222222 0.05714285714285715 0.01  0.2777777777777778 0.05714285714285715 0.01  0.3333333333333333 0.05714285714285715 0.01  0.3888888888888889 0.05714285714285715 0.01  0.4444444444444444 0.05714285714285715 0.01  0.5 0.05714285714285715 0.01  0.5555555555555556 0.05714285714285715 0.01  0.6111111111111112 0.05714285714285715 0.01  0.6666666666666666 0.05714285714285715 0.01  0.7222222222222222 0.05714285714285715 0.01  0.7777777777777778 0.05714285714285715 0.01  0.8333333333333334 0.05714285714285715 0.01  0.8888888888888888 0.05714285714285715 0.01  0.9444444444444444 0.05714285714285715 0.01  1 0.05714285714285715 0.01  0 0.07142857142857142 0.01  0.05555555555555555 0.07142857142857142 0.01  0.1111111111111111 0.07142857142857142 0.01  0.1666666666666667 0.07142857142857142 0.01  0.2222222222222222 0.07142857142857142 0.01  0.2777777777777778 0.07142857142857142 0.01  0.3333333333333333 0.07142857142857142 0.01  0.3888888888888889 0.07142857142857142 0.01  0.4444444444444444 0.07142857142857142 0.01  0.5 0.07142857142857142 0.01  0.5555555555555556 0.07142857142857142 0.01  0.6111111111111112 0.07142857142857142 0.01  0.6666666666666666 0.07142857142857142 0.01  0.7222222222222222 0.07142857142857142 0.01  0.7777777777777778 0.07142857142857142 0.01  0.8333333333333334 0.07142857142857142 0.01  0.8888888888888888 0.07142857142857142 0.01  
[...]
<PointData  Vectors="f_33"> 
<DataArray  type="Float64"  Name="f_33"  NumberOfComponents="3" format="ascii">0.0000000000000000e+00 0.0000000000000000e+00 0.0000000000000000e+00  3.1800728958575534e-03 1.5460119437252934e-04 4.6724499008059485e-03  5.9186060607686417e-03 -3.0360652116548966e-04 1.7882245103204283e-02  8.4047865345867091e-03 -1.0396599666170749e-03 3.8992098447399252e-02  1.0643950465053389e-02 -1.9915361928738219e-03 6.7214831388342181e-02  1.2641085482818207e-02 -3.1235434269028342e-03 1.0180608566851578e-01  1.4400816547151484e-02 -4.4098543816762318e-03 1.4204060301596927e-01  1.5929657601081924e-02 -5.8283500989844876e-03 1.8721239899841960e-01  1.7236280871199671e-02 -7.3587444673349168e-03 2.3663917255610789e-01  1.8331503082717977e-02 -8.9820429385158509e-03 2.8966796587490878e-01  1.9228250096478217e-02 -1.0680466936476576e-02 3.4568124451199672e-01  1.9941509111993352e-02 -1.2437543256921525e-02 4.0410306326830342e-01  2.0488264054883142e-02 -1.4238251202145830e-02 4.6440514252110920e-01  2.0887418894122340e-02 -1.6069188263978351e-02 5.2611276077078550e-01  2.1159717562486274e-02 -1.7918740536677653e-02 5.8881042202245804e-01  2.1327670504123420e-02 -1.9777254618442673e-02 6.5214729549292838e-01  2.1415509341767336e-02 -2.1637210651152525e-02 7.1584245700866134e-01  2.1449220833110298e-02 -2.3493384537297005e-02 7.7969004944184250e-01  2.1456394860856289e-02 -2.5343160472819388e-02 8.4356518601309072e-01  0.0000000000000000e+00 0.0000000000000000e+00 0.0000000000000000e+00  3.0527746011080421e-03 -1.0039654420978603e-06 4.8097761443214836e-03  5.8740661123141283e-03 -4.4066321324823932e-04 1.7978972682378976e-02  8.4322503144151090e-03 -1.1629905427116417e-03 3.8991823501317240e-02  1.0738053894656827e-02 -2.1016798035504180e-03 6.7107925632093168e-02  1.2796061147072662e-02 -3.2208020912790941e-03 1.0159572450160696e-01  1.4610909797523537e-02 -4.4945774353599768e-03 1.4173422808065655e-01  1.6189168593547007e-02 -5.9009945053501781e-03 1.8681894543628438e-01  1.7539577036785839e-02 -7.4198818210998666e-03 2.3616806768554011e-01  1.8673046755870292e-02 -9.0323585507951533e-03 2.8912871124207773e-01  1.9602639800802398e-02 -1.0720757690367153e-02 3.4508320681533888e-01  2.0343527562612075e-02 -1.2468714484869754e-02 4.0345534268054423e-01  2.0912928806047695e-02 -1.4261312767634338e-02 4.6371647091899199e-01  2.1330033531110487e-02 -1.6085250247326686e-02 5.2539141284825008e-01  2.1615922245152873e-02 -1.7929008837611539e-02 5.8806413303635097e-01  2.1793490049985792e-02 -1.9783026611957081e-02 6.5138318195089007e-01  2.1887391719893283e-02 -2.1639871127705611e-02 7.1506693321970549e-01  2.1924085403831291e-02 -2.3494389312735772e-02 7.7890870914740096e-01  2.1932221819696673e-02 -2.5343677872371202e-02 8.4278249637217917e-01  0.0000000000000000e+00 0.0000000000000000e+00 0.0000000000000000e+00  3.0600831070084172e-03 -1.2021898783430594e-04 4.8650067079991409e-03  5.9264578766069402e-03 -5.7574931562179809e-04 1.7981452938343065e-02  8.5422015336836677e-03 -1.2931874629926907e-03 3.8901349199810677e-02  1.0903873586236380e-02 -2.2210507679789630e-03 6.6919004272872520e-02  1.3013310992288014e-02 -3.3274954767957823e-03 1.0131234774521648e-01  1.4874510828417392e-02 -4.5882222577195543e-03 1.4136386346394175e-01  1.6493923458613977e-02 -5.9818015968442452e-03 1.8637029553479828e-01  1.7880342191549541e-02 -7.4883431695583749e-03 2.3565019147674904e-01  1.9044816883732375e-02 -9.0891445766907615e-03 2.8855064191650903e-01  2.0000609165711541e-02 -1.0766679370026868e-02 3.4445375510783161e-01  2.0763143806166250e-02 -1.2504707273837887e-02 4.0278297094641630e-01  2.1349943731626835e-02 -1.4288427900859322e-02 4.6300919524666562e-01  2.1780552325211901e-02 -1.6104648558855707e-02 5.2465671757305188e-01  2.2076451445475778e-02 -1.7941955336841703e-02 5.8730889190638202e-01  2.2260983175533849e-02 -1.9790884724808722e-02 6.5061358318012585e-01  2.2359285682443615e-02 -2.1644097040583090e-02 7.1428840461181542e-01  2.2398316702476027e-02 -2.3496530231756383e-02 7.7812582908574601e-01  2.2407305131149295e-02 -2.5345189806217274e-02 8.4199878560516450e-01  0.0000000000000000e+00 0.0000000000000000e+00 0.0000000000000000e+00  3.0890355212571641e-03 -2.2409656259705970e-04 4.8511130609114918e-03  6.0007583351166906e-03 -7.0743599627132744e-04 1.7886310901677426e-02  8.6724641445332599e-03 -1.4268633289980950e-03 3.8712758103073210e-02  1.1088188000683882e-02 -2.3461803280256425e-03 6.6638669103438422e-02  1.3247028331925873e-02 -3.4404037453531888e-03 1.0094665045084966e-01  1.5152502927578056e-02 -4.6878402842397884e-03 1.4092090636219579e-01  1.6811030750298356e-02 -6.0680857399919115e-03 1.8585875764835988e-01  1.8231502107451947e-02 -7.5617007966275818e-03 2.3507881767852989e-01  1.9425132935370397e-02 -9.1502284200552075e-03 2.8792798732400970e-01  2.0405406679816947e-02 -1.0816311572665376e-02 3.4378803487642057e-01  2.1188021297379376e-02 -1.2543849097748791e-02 4.0208195295238380e-01  2.1790822301291791e-02 -1.4318165695654897e-02 4.6228011102731531e-01  2.2233723854038167e-02 -1.6126185558364394e-02 5.2390618223377472e-01  2.2538625762106995e-02 -1.7956605397821769e-02 5.8654282955516435e-01  2.2729333798028845e-02 -1.9800065861828215e-02 6.4983715658786312e-01  2.2831487874414177e-02 -2.1649324631950708e-02 7.1350594786514954e-01  2.2872548657856772e-02 -2.3499421531362186e-02 7.7734077215268416e-01  2.2882251230557520e-02 -2.5347467810969894e-02 8.4121346552683329e-01  0.0000000000000000e+00 0.0000000000000000e+00 0.0000000000000000e+00  3.1121028160459429e-03 -3.2676631479443193e-04 4.7735439651643121e-03  6.0766216806879591e-03 -8.3974892675081950e-04 1.7698175718393092e-02  8.8073030236676050e-03 -1.5637122013230664e-03 3.8426469520846461e-02  1.1277898497886662e-02 -2.4756207778383900e-03 6.6265747551252460e-02  1.3486111526843491e-02 -3.5578223173656047e-03 1.0049691666152903e-01  1.5435524160704256e-02 -4.7917471286565462e-03 1.4040353623339935e-01  1.7132719352748946e-02 -6.1582705647124604e-03 1.8528258466270983e-01  1.8586756012573823e-02 -7.6385139267783975e-03 2.3445234029428894e-01  1.9809045473930764e-02 -9.2143120653429399e-03 2.8725930558734841e-01  2.0813306991644225e-02 -1.0868498264508022e-02 3.4308477303771395e-01  2.1615519839060373e-02 -1.2585121357243441e-02 4.0135118104740009e-01  2.2233857928941024e-02 -1.4349638122726875e-02 4.6152826857621743e-01  2.2688611024921142e-02 -1.6149095151022422e-02 5.2313900500503618e-01  2.3002101238516967e-02 -1.7972304823498087e-02 5.8576527970910564e-01  2.3198602980856613e-02 -1.9810017010799076e-02 6.4905335664358588e-01  2.3304267789197027e-02 -2.1655091005346776e-02 7.1271911940850519e-01  2.3347074563770776e-02 -2.3502676401514482e-02 7.7655316886244763e-01  2.3357297265555101e-02 -2.5350149194439980e-02 8.4042624166175262e-01  0.0000000000000000e+00 0.0000000000000000e+00 0.0000000000000000e+00  3.1194294485716568e-03 -4.4028129113311696e-04 4.6293942297475120e-03  6.1443974211236206e-03 -9.7920575334435708e-04 1.7416436323111770e-02  8.9383091104657669e-03 -1.7060975862954362e-03 3.8042169733334498e-02  1.1465583925661818e-02 -2.6099311764791544e-03 6.5799616289930737e-02  1.3724060641846218e-02 -3.6796479379881219e-03 9.9962346644078132e-02  1.5717970046141904e-02 -4.8995992753412040e-03 1.3981092252605098e-01  1.7454244433686421e-02 -6.2519249602819883e-03 1.8464098953153465e-01  1.8942173131169783e-02 -7.7183206441072006e-03 2.3377004735191145e-01  2.0193384083725598e-02 -9.2809248587391625e-03 2.8654397120764108e-01  2.1221838531100240e-02 -1.0922769328313018e-02 3.4234343311017501e-01  2.2043797491027542e-02 -1.2628058923401384e-02 4.0059020630700265e-01  2.2677761602622876e-02 -1.4382387577085912e-02 4.6075330301684508e-01  2.3144393857960237e-02 -1.6172928921547255e-02 5.2235490024392994e-01  2.3466436086676586e-02 -1.7988615604762354e-02 5.8497602997959963e-01  2.3668629115930415e-02 -1.9820311959575680e-02 6.4826203640438218e-01  2.3777640876699955e-02 -2.1660984385984190e-02 7.1192782591614900e-01  2.3821995034311247e-02 -2.3505898871526289e-02 7.7576296377852594e-01  2.3832560424450380e-02 -2.5352814323462265e-02 8.3963709746402515e-01  0.0000000000000000e+00 0.0000000000000000e+00 0.0000000000000000e+00  3.0969430465183326e-03 -5.7513372776128767e-04 4.4048075350350104e-03  6.1877262716434718e-03 -1.1319855713789733e-03 1.7033470771505951e-02  9.0489849670196253e-03 -1.8569943249044508e-03 3.7556062416482780e-02  1.1635598792553938e-02 -2.7504012532188508e-03 6.5237810353240125e-02  1.3946629125046300e-02 -3.8064192353381696e-03 9.9341063571546706e-02  1.5987183291760281e-02 -5.0116001371023101e-03 1.3914155538171386e-01  1.7764574201054251e-02 -6.3490860310820574e-03 1.8393275357786482e-01  1.9288316551417484e-02 -7.8010595959179070e-03 2.3303097699929975e-01  2.0570241488387941e-02 -9.3499356864688871e-03 2.8578125646526309e-01  2.1624535829889949e-02 -1.0978937843909605e-02 3.4156350121439516e-01  2.2467724969509884e-02 -1.2672427692359206e-02 3.9979870781270649e-01  2.3118618980055319e-02 -1.4416139602550757e-02 4.5995506398214736e-01  2.3598237308854398e-02 -1.6197378380177135e-02 5.2155386392071890e-01  2.3929725346858846e-02 -1.8005201437664861e-02 5.8417519652740924e-01  2.4138274426519495e-02 -1.9830593037887558e-02 6.4746340345870357e-01  2.4251058181144012e-02 -2.1666634181337054e-02 7.1113233209186943e-01  2.4297172744061821e-02 -2.3508706092421942e-02 7.7497043887559736e-01  2.4308082707002188e-02 -2.5355035395866473e-02 8.3884629873045946e-01  0.0000000000000000e+00 0.0000000000000000e+00 0.0000000000000000e+00  2.9830399294524346e-03 -7.2308664107169915e-04 4.0931678119418280e-03  6.1375558925892233e-03 -1.2901697577710823e-03 1.6549698006719786e-02  9.0717538344441736e-03 -2.0087022118423941e-03 3.6972626184159467e-02  1.1724812524282894e-02 -2.8896719799733012e-03 6.4586023220393571e-02  1.4096573043095450e-02 -3.9313466244766419e-03 9.8638941414320835e-02  1.6192291441471274e-02 -5.1216674890853338e-03 1.3840108064458209e-01  1.8019268185858420e-02 -6.4444290673197329e-03 1.8316313577367682e-01  1.9587038971318131e-02 -7.8821621640426855e-03 2.3223993927328923e-01  2.0907511093571519e-02 -9.4175035211147996e-03 2.8497549924165350e-01  2.1995000129729325e-02 -1.1033846450093960e-02 3.4074883697729075e-01  2.2866211916473245e-02 -1.2715699627931974e-02 3.9898006990093771e-01  2.3540188784815307e-02 -1.4448932856741129e-02 4.5913646957065485e-01  2.4038234031901098e-02 -1.6220978903670802e-02 5.2073836188257272e-01  2.4383827630798969e-02 -1.8021017541388826e-02 5.8336481130170481e-01  2.4602545447065687e-02 -1.9840151587487843e-02 6.4665907814929269e-01  2.4721997190252091e-02 -2.1671582378046717e-02 7.1033387064565434e-01  2.4771840964668650e-02 -2.3510786641758801e-02 7.7417640915389185e-01  2.4783926224227381e-02 -2.5356528525536107e-02 8.3805421471784725e-01  0.0000000000000000e+00 0.0000000000000000e+00 0.0000000000000000e+00  1.4344180965005318e-03 3.2002521787884035e-05 4.5382209662074412e-03  2.7120112398948070e-03 -3.9514005776459789e-04 1.7758697755535811e-02  3.8652027438585554e-03 -1.0590416127712454e-03 3.8879143609220519e-02  4.9045371236853385e-03 -1.9333749617743662e-03 6.7112832727732621e-02  5.8326086411713066e-03 -2.9906626200118000e-03 1.0171507773920747e-01  6.6512466476712703e-03 -4.2077215008534561e-03 1.4196044635900493e-01  7.3632617316572056e-03 -5.5633702951850038e-03 1.8714281463701754e-01  7.9725493198951232e-03 -7.0376394327938624e-03 2.3657976601352876e-01  8.4840326400133295e-03 -8.6115871037388721e-03 2.8961823854750490e-01  8.9036217411783206e-03 -1.0267351339762330e-02 3.4564059896103810e-01  9.2381815061773499e-03 -1.1988286747707777e-02 4.0407080683873625e-01  9.4954974518712786e-03 -1.3759130004238037e-02 4.6438049089000633e-01  9.6842377275352526e-03 -1.5566173595271626e-02 5.2609484168012799e-01  9.8139140489880462e-03 -1.7397440512122209e-02 5.8879827894435344e-01  9.8948462251677617e-03 -1.9242858025475450e-02 6.5213989078970847e-01  9.9381405781683897e-03 -2.1094427168171743e-02 7.1583867289330161e-01  9.9557008576195566e-03 -2.2946358845685143e-02 7.7968867994151925e-01  9.9599801267867237e-03 -2.4795310665983450e-02 8.4356458605157836e-01  0.0000000000000000e+00 0.0000000000000000e+00 0.0000000000000000e+00  1.4246297477682936e-03 -6.3657902856811398e-05 4.6612980923901185e-03  2.7861445984115408e-03 -4.7196211850811953e-04 1.7853722868567914e-02  4.0005524653706779e-03 -1.1284300115419472e-03 3.8878389220044982e-02  5.0955729765708082e-03 -1.9955483408130806e-03 6.7005822340151566e-02  6.0735420420957023e-03 -3.0457185877205244e-03 1.0150470138117910e-01  6.9365160566372559e-03 -4.2558079207941930e-03 1.4165405628112188e-01  7.6875001849700010e-03 -5.6047152466709611e-03 1.8674931819859267e-01  8.3305693921488667e-03 -7.0725439019038161e-03 2.3610858507473903e-01  8.8708445452183714e-03 -8.6404189956296850e-03 2.8907887780528951e-01  9.3144700560412567e-03 -1.0290542034221752e-02 3.4504243172696814e-01  9.6685895244938216e-03 -1.2006328471650580e-02 4.0342294136899093e-01  9.9413141046200311e-03 -1.3772573262785467e-02 4.6369166782102761e-01  1.0141684953756098e-02 -1.5575624565016918e-02 5.2537334481804632e-01  1.0279633711316875e-02 -1.7403558513806879e-02 5.8805185290312323e-01  1.0365945302293629e-02 -1.9246353419627927e-02 6.5137566183379147e-01  1.0412230503214489e-02 -2.1096060952442219e-02 7.1506306647018758e-01  1.0430949293553865e-02 -2.2946942422401560e-02 7.7890729936606085e-01  1.0435568927126198e-02 -2.4795520621850562e-02 8.4278202883834497e-01  0.0000000000000000e+00 0.0000000000000000e+00 0.0000000000000000e+00  1.4548559817634894e-03 -1.2793212053588309e-04 4.7108761949456622e-03  2.8707769916369291e-03 -5.4146706894637922e-04 1.7849667511835161e-02  4.1433913975029166e-03 -1.1948953441216382e-03 3.8784364696129336e-02  5.2920606192993188e-03 -2.0562529564777839e-03 6.6814521642854327e-02  6.3185312280728632e-03 -3.0998968208096386e-03 1.0121950351877135e-01  7.2247304045435258e-03 -4.3033247826690007e-03 1.4128220755129028e-01  8.0137323447880288e-03 -5.6456957151647348e-03 1.8629943868389259e-01  8.6897526278286469e-03 -7.1072438660610320e-03 2.3558969810884778e-01  9.2581013351963129e-03 -8.6691808950905228e-03 2.8849999630374901e-01  9.7251597296461687e-03 -1.0313778230850845e-02 3.4441235046468455e-01  1.0098356339799344e-02 -1.2024513928253620e-02 4.0275010708410081e-01  1.0386135207148617e-02 -1.3786241355985900e-02 4.6298407989606855e-01  1.0597917821683718e-02 -1.5585363973759758e-02 5.2463846928712554e-01  1.0744062796238201e-02 -1.7410010443245815e-02 5.8729654343149973e-01  1.0835826768472591e-02 -1.9250208829839494e-02 6.5060608473473380e-01  1.0885329906433932e-02 -2.1098059633472280e-02 7.1428462636863532e-01  1.0905570938136048e-02 -2.2947882084729112e-02 7.7812455154459859e-01  1.0910721902605728e-02 -2.4796161411290062e-02 8.4199850731642967e-01  0.0000000000000000e+00 0.0000000000000000e+00 0.0000000000000000e+00  1.4965113928934800e-03 -1.8261487931214824e-04 4.6925281167332815e-03  2.9650854638396690e-03 -6.0745825582461568e-04 1.7749444039579145e-02  4.2943807456817407e-03 -1.2613562544104180e-03 3.8592036191234823e-02  5.4957469248252443e-03 -2.1183960426614007e-03 6.6531400462332344e-02  6.5697998200277960e-03 -3.1559113198486961e-03 1.0085157659384439e-01  7.5183193402076406e-03 -4.3527014277844073e-03 1.4083739299193859e-01  8.3444696600666092e-03 -5.6884271491255975e-03 1.8578633645103029e-01  9.0526198221963176e-03 -7.1435403453504109e-03 2.3501701625940496e-01  9.6482791956269201e-03 -8.6993712449234591e-03 2.8787626791847659e-01  1.0138074843276822e-02 -1.0338274094690236e-02 3.4374577274022178e-01  1.0529728552204352e-02 -1.2043795552949739e-02 4.0204843000671392e-01  1.0832025099950961e-02 -1.3800850898260648e-02 4.6225451570812298e-01  1.1054773721038807e-02 -1.5595901483536342e-02 5.2388761187517852e-01  1.1208767044127642e-02 -1.7417130689512929e-02 5.8653029359091202e-01  1.1305740722605265e-02 -1.9254617884938180e-02 6.4982957980972411e-01  1.1358332816230620e-02 -2.1100512468329398e-02 7.1350217373833780e-01  1.1380074440986175e-02 -2.2949196866779834e-02 7.7733955750079820e-01  1.1385728988748890e-02 -2.4797237543904983e-02 8.4121330815483764e-01  0.0000000000000000e+00 0.0000000000000000e+00 0.0000000000000000e+00  1.5361425246146262e-03 -2.3771573450122622e-04 4.6128018520812594e-03  3.0609950774381726e-03 -6.7453755755979760e-04 1.7557829145037156e-02  4.4478434659911336e-03 -1.3302460921909729e-03 3.8302440721541271e-02  5.7021325809805713e-03 -2.1835019824744352e-03 6.6155730421594353e-02  6.8236509208335211e-03 -3.2149252010096841e-03 1.0039953931566023e-01  7.8142697310733950e-03 -4.4048841156073765e-03 1.4031805976617567e-01  8.6773148526610583e-03 -5.7336845588110454e-03 1.8520848649081639e-01  9.4173336885828209e-03 -7.1820562088528543e-03 2.3438911923582853e-01  1.0040045614748921e-02 -8.7314732051506326e-03 2.8720640452823581e-01  1.0552329271346769e-02 -1.0364384265051405e-02 3.4304155016862431e-01  1.0962203482882784e-02 -1.2064411063395109e-02 4.0131690063454534e-01  1.1278796689859920e-02 -1.3816535206348951e-02 4.6150209971413902e-01  1.1512308388482360e-02 -1.5607279598048831e-02 5.2312002361466181e-01  1.1673967528339990e-02 -1.7424885715764431e-02 5.8575247163530675e-01  1.1775991704713773e-02 -1.9259487338681096e-02 6.4904562087082307e-01  1.1831543997394525e-02 -2.1103284208384948e-02 7.1271527198324813e-01  1.1854695420271922e-02 -2.2950725203533626e-02 7.7655194320712329e-01  1.1860765604367458e-02 -2.4798562681939060e-02 8.4042612372231029e-01  0.0000000000000000e+00 0.0000000000000000e+00 0.0000000000000000e+00  1.5684408273323746e-03 -3.0085368003428492e-04 4.4698991831122366e-03  3.1530674062883136e-03 -7.4718625502824142e-04 1.7274787479965800e-02  4.5992781770682351e-03 -1.4038343361222391e-03 3.7916109081360852e-02  5.9072459198542815e-03 -2.2528327381066450e-03 6.5687628075408566e-02  7.0766186140038536e-03 -3.2777708890237007e-03 9.9863195597433327e-02  8.1096164526077968e-03 -4.4604928532288235e-03 1.3972387727736466e-01  9.0097878158659789e-03 -5.7819516849162301e-03 1.8456551785212127e-01  9.7818732127468392e-03 -7.2231682556376346e-03 2.3370563832302127e-01  1.0431806072133693e-02 -8.7657702246743997e-03 2.8649005839353903e-01  1.0966717063621990e-02 -1.0392307328357902e-02 3.4229936475011064e-01  1.1394921061489857e-02 -1.2086481293817716e-02 4.0055523542044486e-01  1.1725888654106301e-02 -1.3833344414018485e-02 4.6072658584386905e-01  1.1970207933705493e-02 -1.5619485200447914e-02 5.2233549812708346e-01  1.2139542483720846e-02 -1.7433207216741336e-02 5.8496291245818077e-01  1.2246590632476071e-02 -1.9264702872725241e-02 6.4825408436350229e-01  1.2305045218414124e-02 -2.1106225331410544e-02 7.1192383522475977e-01  1.2329537656966576e-02 -2.2952290036047592e-02 7.7576165097256256e-01  1.2335932576999917e-02 -2.4799914171852407e-02 8.3963692990019489e-01  0.0000000000000000e+00 0.0000000000000000e+00 0.0000000000000000e+00  1.5894373062145951e-03 -3.8128147170321715e-04 4.2514507706281589e-03  3.2353815817615728e-03 -8.3145261620954107e-04 1.6893693518032191e-02  4.7423581547739527e-03 -1.4861040113940843e-03 3.7430302843354635e-02  6.1049166614094022e-03 -2.3292130377485947e-03 6.5125602237548236e-02  7.3230197073554087e-03 -3.3466279721460234e-03 9.9241498211868090e-02  8.3992879091091873e-03 -4.5212969177260516e-03 1.3905402397293867e-01  9.3374617909736581e-03 -5.8346860320020837e-03 1.8385677200494213e-01  1.0142451311166038e-02 -7.2680673771701983e-03 2.3296605585999172e-01  1.0820389530357393e-02 -8.8032129325237348e-03 2.8572684139927107e-01  1.1378648680882572e-02 -1.0422774321176097e-02 3.4151894914636161e-01  1.1825830758219871e-02 -1.2110537595734704e-02 3.9976327913495907e-01  1.2171740340980263e-02 -1.3851631122895390e-02 4.5992792167637669e-01  1.2427346480044907e-02 -1.5632714704501775e-02 5.2153407564998988e-01  1.2604740158022701e-02 -1.744