<?xml version="1.0"?>
<VTKFile type="UnstructuredGrid"  version="0.1"  >
<UnstructuredGrid>
<Piece  NumberOfPoints="760" NumberOfCells="3024">
<Points>
<DataArray  type="Float64"  NumberOfComponents="3"  format="ascii">0 0 0  0.05555555555555555 0 0  0.1111111111111111 0 0  0.1666666666666667 0 0  0.2222222222222222 0 0  0.2777777777777778 0 0  0.3333333333333333 0 0  0.3888888888888889 0 0  0.4444444444444444 0 0  0.5 0 0  0.5555555555555556 0 0  0.6111111111111112 0 0  0.6666666666666666 0 0  0.7222222222222222 0 0  0.7777777777777778 0 0  0.8333333333333334 0 0  0.8888888888888888 0 0  0.9444444444444444 0 0  1 0 0  0 0.01428571428571429 0  0.05555555555555555 0.01428571428571429 0  0.1111111111111111 0.01428571428571429 0  0.1666666666666667 0.01428571428571429 0  0.2222222222222222 0.01428571428571429 0  0.2777777777777778 0.01428571428571429 0  0.3333333333333333 0.01428571428571429 0  0.3888888888888889 0.01428571428571429 0  0.4444444444444444 0.01428571428571429 0  0.5 0.01428571428571429 0  0.5555555555555556 0.01428571428571429 0  0.6111111111111112 0.01428571428571429 0  0.6666666666666666 0.01428571428571429 0  0.7222222222222222 0.01428571428571429 0  0.7777777777777778 0.01428571428571429 0  0.8333333333333334 0.01428571428571429 0  0.8888888888888888 0.01428571428571429 0  0.9444444444444444 0.01428571428571429 0  1 0.01428571428571429 0  0 0.02857142857142857 0  0.05555555555555555 0.02857142857142857 0  0.1111111111111111 0.02857142857142857 0  0.1666666666666667 0.02857142857142857 0  0.2222222222222222 0.02857142857142857 0  0.2777777777777778 0.02857142857142857 0  0.3333333333333333 0.02857142857142857 0  0.3888888888888889 0.02857142857142857 0  0.4444444444444444 0.02857142857142857 0  0.5 0.02857142857142857 0  0.5555555555555556 0.02857142857142857 0  0.6111111111111112 0.02857142857142857 0  0.6666666666666666 0.02857142857142857 0  0.7222222222222222 0.02857142857142857 0  0.7777777777777778 0.02857142857142857 0  0.8333333333333334 0.02857142857142857 0  0.8888888888888888 0.02857142857142857 0  0.9444444444444444 0.02857142857142857 0  1 0.02857142857142857 0  0 0.04285714285714286 0  0.05555555555555555 0.04285714285714286 0  0.1111111111111111 0.04285714285714286 0  0.1666666666666667 0.04285714285714286 0  0.2222222222222222 0.04285714285714286 0  0.2777777777777778 0.04285714285714286 0  0.3333333333333333 0.04285714285714286 0  0.3888888888888889 0.04285714285714286 0  0.4444444444444444 0.04285714285714286 0  0.5 0.04285714285714286 0  0.5555555555555556 0.04285714285714286 0  0.6111111111111112 0.04285714285714286 0  0.6666666666666666 0.04285714285714286 0  0.7222222222222222 0.04285714285714286 0  0.7777777777777778 0.04285714285714286 0  0.8333333333333334 0.04285714285714286 0  0.8888888888888888 0.04285714285714286 0  0.9444444444444444 0.04285714285714286 0  1 0.04285714285714286 0  0 0.05714285714285715 0  0.05555555555555555 0.05714285714285715 0  0.1111111111111111 0.05714285714285715 0  0.1666666666666667 0.05714285714285715 0  0.2222222222222222 0.05714285714285715 0  0.2777777777777778 0.05714285714285715 0  0.3333333333333333 0.05714285714285715 0  0.3888888888888889 0.05714285714285715 0  0.4444444444444444 0.05714285714285715 0  0.5 0.05714285714285715 0  0.5555555555555556 0.05714285714285715 0  0.6111111111111112 0.05714285714285715 0  0.6666666666666666 0.05714285714285715 0  0.7222222222222222 0.05714285714285715 0  0.7777777777777778 0.05714285714285715 0  0.8333333333333334 0.05714285714285715 0  0.8888888888888888 0.05714285714285715 0  0.9444444444444444 0.05714285714285715 0  1 0.05714285714285715 0  0 0.07142857142857142 0  0.05555555555555555 0.07142857142857142 0  0.1111111111111111 0.07142857142857142 0  0.1666666666666667 0.07142857142857142 0  0.2222222222222222 0.07142857142857142 0  0.2777777777777778 0.07142857142857142 0  0.3333333333333333 0.07142857142857142 0  0.3888888888888889 0.07142857142857142 0  0.4444444444444444 0.07142857142857142 0  0.5 0.07142857142857142 0  0.5555555555555556 0.07142857142857142 0  0.6111111111111112 0.07142857142857142 0  0.6666666666666666 0.07142857142857142 0  0.7222222222222222 0.07142857142857142 0  0.7777777777777778 0.07142857142857142 0  0.8333333333333334 0.07142857142857142 0  0.8888888888888888 0.07142857142857142 0  0.9444444444444444 0.07142857142857142 0  1 0.07142857142857142 0  0 0.08571428571428573 0  0.05555555555555555 0.08571428571428573 0  0.1111111111111111 0.08571428571428573 0  0.1666666666666667 0.08571428571428573 0  0.2222222222222222 0.08571428571428573 0  0.2777777777777778 0.08571428571428573 0  0.3333333333333333 0.08571428571428573 0  0.3888888888888889 0.08571428571428573 0  0.4444444444444444 0.08571428571428573 0  0.5 0.08571428571428573 0  0.5555555555555556 0.08571428571428573 0  0.6111111111111112 0.08571428571428573 0  0.6666666666666666 0.08571428571428573 0  0.7222222222222222 0.08571428571428573 0  0.7777777777777778 0.08571428571428573 0  0.8333333333333334 0.08571428571428573 0  0.8888888888888888 0.08571428571428573 0  0.9444444444444444 0.08571428571428573 0  1 0.08571428571428573 0  0 0.1 0  0.05555555555555555 0.1 0  0.1111111111111111 0.1 0  0.1666666666666667 0.1 0  0.2222222222222222 0.1 0  0.2777777777777778 0.1 0  0.3333333333333333 0.1 0  0.3888888888888889 0.1 0  0.4444444444444444 0.1 0  0.5 0.1 0  0.5555555555555556 0.1 0  0.6111111111111112 0.1 0  0.6666666666666666 0.1 0  0.7222222222222222 0.1 0  0.7777777777777778 0.1 0  0.8333333333333334 0.1 0  0.8888888888888888 0.1 0  0.9444444444444444 0.1 0  1 0.1 0  0 0 0.01  0.05555555555555555 0 0.01  0.1111111111111111 0 0.01  0.1666666666666667 0 0.01  0.2222222222222222 0 0.01  0.2777777777777778 0 0.01  0.3333333333333333 0 0.01  0.3888888888888889 0 0.01  0.4444444444444444 0 0.01  0.5 0 0.01  0.5555555555555556 0 0.01  0.6111111111111112 0 0.01  0.6666666666666666 0 0.01  0.7222222222222222 0 0.01  0.7777777777777778 0 0.01  0.8333333333333334 0 0.01  0.8888888888888888 0 0.01  0.9444444444444444 0 0.01  1 0 0.01  0 0.01428571428571429 0.01  0.05555555555555555 0.01428571428571429 0.01  0.1111111111111111 0.01428571428571429 0.01  0.1666666666666667 0.01428571428571429 0.01  0.2222222222222222 0.01428571428571429 0.01  0.2777777777777778 0.01428571428571429 0.01  0.3333333333333333 0.01428571428571429 0.01  0.3888888888888889 0.01428571428571429 0.01  0.4444444444444444 0.01428571428571429 0.01  0.5 0.01428571428571429 0.01  0.5555555555555556 0.01428571428571429 0.01  0.6111111111111112 0.01428571428571429 0.01  0.6666666666666666 0.01428571428571429 0.01  0.7222222222222222 0.01428571428571429 0.01  0.7777777777777778 0.01428571428571429 0.01  0.8333333333333334 0.01428571428571429 0.01  0.8888888888888888 0.01428571428571429 0.01  0.9444444444444444 0.01428571428571429 0.01  1 0.01428571428571429 0.01  0 0.02857142857142857 0.01  0.05555555555555555 0.02857142857142857 0.01  0.1111111111111111 0.02857142857142857 0.01  0.1666666666666667 0.02857142857142857 0.01  0.2222222222222222 0.02857142857142857 0.01  0.2777777777777778 0.02857142857142857 0.01  0.3333333333333333 0.02857142857142857 0.01  0.3888888888888889 0.02857142857142857 0.01  0.4444444444444444 0.02857142857142857 0.01  0.5 0.02857142857142857 0.01  0.5555555555555556 0.02857142857142857 0.01  0.6111111111111112 0.02857142857142857 0.01  0.6666666666666666 0.02857142857142857 0.01  0.7222222222222222 0.02857142857142857 0.01  0.7777777777777778 0.02857142857142857 0.01  0.8333333333333334 0.02857142857142857 0.01  0.8888888888888888 0.02857142857142857 0.01  0.9444444444444444 0.02857142857142857 0.01  1 0.02857142857142857 0.01  0 0.04285714285714286 0.01  0.05555555555555555 0.04285714285714286 0.01  0.1111111111111111 0.04285714285714286 0.01  0.1666666666666667 0.04285714285714286 0.01  0.2222222222222222 0.04285714285714286 0.01  0.2777777777777778 0.04285714285714286 0.01  0.3333333333333333 0.04285714285714286 0.01  0.3888888888888889 0.04285714285714286 0.01  0.4444444444444444 0.04285714285714286 0.01  0.5 0.04285714285714286 0.01  0.5555555555555556 0.04285714285714286 0.01  0.6111111111111112 0.04285714285714286 0.01  0.6666666666666666 0.04285714285714286 0.01  0.7222222222222222 0.04285714285714286 0.01  0.7777777777777778 0.04285714285714286 0.01  0.8333333333333334 0.04285714285714286 0.01  0.8888888888888888 0.04285714285714286 0.01  0.9444444444444444 0.04285714285714286 0.01  1 0.04285714285714286 0.01  0 0.05714285714285715 0.01  0.05555555555555555 0.05714285714285715 0.01  0.1111111111111111 0.05714285714285715 0.01  0.1666666666666667 0.05714285714285715 0.01  0.2222222222222222 0.05714285714285715 0.01  0.2777777777777778 0.05714285714285715 0.01  0.3333333333333333 0.05714285714285715 0.01  0.3888888888888889 0.05714285714285715 0.01  0.4444444444444444 0.05714285714285715 0.01  0.5 0.05714285714285715 0.01  0.5555555555555556 0.05714285714285715 0.01  0.6111111111111112 0.05714285714285715 0.01  0.6666666666666666 0.05714285714285715 0.01  0.7222222222222222 0.05714285714285715 0.01  0.7777777777777778 0.05714285714285715 0.01  0.8333333333333334 0.05714285714285715 0.01  0.8888888888888888 0.05714285714285715 0.01  0.9444444444444444 0.05714285714285715 0.01  1 0.05714285714285715 0.01  0 0.07142857142857142 0.01  0.05555555555555555 0.07142857142857142 0.01  0.1111111111111111 0.07142857142857142 0.01  0.1666666666666667 0.07142857142857142 0.01  0.2222222222222222 0.07142857142857142 0.01  0.2777777777777778 0.07142857142857142 0.01  0.3333333333333333 0.07142857142857142 0.01  0.3888888888888889 0.07142857142857142 0.01  0.4444444444444444 0.07142857142857142 0.01  0.5 0.07142857142857142 0.01  0.5555555555555556 0.07142857142857142 0.01  0.6111111111111112 0.07142857142857142 0.01  0.6666666666666666 0.07142857142857142 0.01  0.7222222222222222 0.07142857142857142 0.01  0.7777777777777778 0.07142857142857142 0.01  0.8333333333333334 0.07142857142857142 0.01  0.8888888888888888 0.07142857142857142 0.01  
[...]
<PointData  Vectors="f_33"> 
<DataArray  type="Float64"  Name="f_33"  NumberOfComponents="3" format="ascii">0.0000000000000000e+00 0.0000000000000000e+00 0.0000000000000000e+00  -2.4554315479103825e-03 -1.3818392355554278e-04 -3.5603164411867161e-03  -4.5801541977908934e-03 1.6549023330929407e-04 -1.3650165231607538e-02  -6.5180321306135070e-03 6.5511670934078074e-04 -2.9807342988316485e-02  -8.2722689828415574e-03 1.2860467555025083e-03 -5.1452838225277631e-02  -9.8458093937546752e-03 2.0339278939122151e-03 -7.8038384953775852e-02  -1.1241084391710753e-02 2.8818438388445011e-03 -1.0902748397212224e-01  -1.2461700284504090e-02 3.8155635167725008e-03 -1.4389460728026443e-01  -1.3512700126029131e-02 4.8220773323720658e-03 -1.8212776242425377e-01  -1.4400647158666648e-02 5.8891551807253315e-03 -2.2323224552716103e-01  -1.5133713526834753e-02 7.0052658697258800e-03 -2.6673502655426556e-01  -1.5721771606763267e-02 8.1596302354946769e-03 -3.1218956190753233e-01  -1.6176475892598376e-02 9.3423266066215063e-03 -3.5918092468072632e-01  -1.6511330783275279e-02 1.0544418462407449e-02 -4.0733117905681004e-01  -1.6741743554294558e-02 1.1758093012905018e-02 -4.5630494199707905e-01  -1.6885064450919134e-02 1.2976807326797053e-02 -5.0581508510916084e-01  -1.6960627763326488e-02 1.4195441126173991e-02 -5.5562853975628990e-01  -1.6989837576571791e-02 1.5410445952090250e-02 -6.0557223490406320e-01  -1.6996089686863822e-02 1.6620111829530812e-02 -6.5553980234429632e-01  0.0000000000000000e+00 0.0000000000000000e+00 0.0000000000000000e+00  -2.3493116900854200e-03 -1.7190514425374971e-05 -3.6654641647805002e-03  -4.5299147123811006e-03 2.7263113406125701e-04 -1.3724704109299940e-02  -6.5158686979064724e-03 7.5203299087343454e-04 -2.9808073011106676e-02  -8.3148120624590496e-03 1.3730909800260616e-03 -5.1372079802239283e-02  -9.9294418416446869e-03 2.1112713638425673e-03 -7.7878205586640797e-02  -1.1362200855452489e-02 2.9496821950249267e-03 -1.0879320926166426e-01  -1.2616720150208404e-02 3.8741633933980909e-03 -1.4359272564821213e-01  -1.3698062581778990e-02 4.8717861704518760e-03 -1.8176518051498144e-01  -1.4612817856356307e-02 5.9304065277636106e-03 -2.2281598760973040e-01  -1.5369202011243440e-02 7.0385844995930332e-03 -2.6627209078037811e-01  -1.5977155040016577e-02 8.1856367833153375e-03 -3.1168683166544298e-01  -1.6448426668709413e-02 9.3617414059813959e-03 -3.5864509764283192e-01  -1.6796646937939995e-02 1.0558064473197818e-02 -4.0676870011861105e-01  -1.7037381353888513e-02 1.1766897707004164e-02 -4.5572193484334350e-01  -1.7188171766452983e-02 1.2981803297782691e-02 -5.0521727919820558e-01  -1.7268571980565108e-02 1.4197765189841090e-02 -5.5502118639237019e-01  -1.7300241646881320e-02 1.5411325708254507e-02 -6.0495998479401980e-01  -1.7307315867771803e-02 1.6620563591957009e-02 -6.5492641426532849e-01  0.0000000000000000e+00 0.0000000000000000e+00 0.0000000000000000e+00  -2.3471510672318100e-03 7.5375301005607093e-05 -3.7073497982661068e-03  -4.5548782390468579e-03 3.7773548510806307e-04 -1.3726590939507769e-02  -6.5781123211937336e-03 8.5368713920138393e-04 -2.9738980488389459e-02  -8.4137365691927517e-03 1.4667389557892680e-03 -5.1227521108347232e-02  -1.0062398077777708e-02 2.1954465188207721e-03 -7.7660907429280973e-02  -1.1526042945892717e-02 3.0240309006318534e-03 -1.0850856467340059e-01  -1.2808186775711222e-02 3.9387629284189391e-03 -1.4324710238251512e-01  -1.3913897635518674e-02 4.9269201904744682e-03 -1.8136526678773246e-01  -1.4849825035147569e-02 5.9764926608155316e-03 -2.2236851483605705e-01  -1.5624282510928926e-02 7.0761522224205911e-03 -2.6578369481859909e-01  -1.6247340680944005e-02 8.2153223080732602e-03 -3.1116396382144390e-01  -1.6730912313843622e-02 9.3842881097313396e-03 -3.5809395198917959e-01  -1.7088823542033234e-02 1.0574324715066389e-02 -4.0619514469151852e-01  -1.7336869937937822e-02 1.1777834256904816e-02 -4.5513144213971124e-01  -1.7492857283083803e-02 1.2988489084175358e-02 -5.0461485383607596e-01  -1.7576630970666522e-02 1.4201381141764297e-02 -5.5441128672825168e-01  -1.7610153508030992e-02 1.5413159065632599e-02 -6.0434642565060792e-01  -1.7617924782763059e-02 1.6621857207258558e-02 -6.5431216054487784e-01  0.0000000000000000e+00 0.0000000000000000e+00 0.0000000000000000e+00  -2.3619553995259746e-03 1.5561537501795886e-04 -3.6961594924256663e-03  -4.5969527657792513e-03 4.7967774666659950e-04 -1.3653347687791428e-02  -6.6562634176946930e-03 9.5748684807603606e-04 -2.9594106328831433e-02  -8.5272306874531675e-03 1.5643300697940638e-03 -5.1012031333353157e-02  -1.0208418171485293e-02 2.2839756923434553e-03 -7.7379392754569357e-02  -1.1701393129808774e-02 3.1026112537941080e-03 -1.0816695431797986e-01  -1.3009619421486049e-02 4.0072754381783662e-03 -1.4285180795732161e-01  -1.4138201626678708e-02 4.9855808868333887e-03 -1.8092280542452591e-01  -1.5093869675053837e-02 6.0257017138811014e-03 -2.2188532433726468e-01  -1.5885052074829160e-02 7.1164427907817757e-03 -2.6526602552073736e-01  -1.6521966894604161e-02 8.2473446713255127e-03 -3.1061779862963818e-01  -1.7016706900909118e-02 9.4088061796645858e-03 -3.5752493527263529e-01  -1.7383311587515753e-02 1.0592216498181569e-02 -4.0560851278226917e-01  -1.7637824215920080e-02 1.1790092844186072e-02 -4.5453195295377202e-01  -1.7798333062009231e-02 1.2996222014734809e-02 -5.0400671499066829e-01  -1.7884995838326517e-02 1.4205807443531414e-02 -5.5379808153920518e-01  -1.7920088162401052e-02 1.5415612635830122e-02 -6.0373102756928820e-01  -1.7928427242591808e-02 1.6623790166384635e-02 -6.5369654476755701e-01  0.0000000000000000e+00 0.0000000000000000e+00 0.0000000000000000e+00  -2.3723752771902906e-03 2.3435655338534887e-04 -3.6360926502320640e-03  -4.6402896359225643e-03 5.8153384085200517e-04 -1.3508540695084302e-02  -6.7379558890043167e-03 1.0632080505879489e-03 -2.9373794278989271e-02  -8.6449033941341218e-03 1.6647701789693509e-03 -5.0724735101988772e-02  -1.0358611589243939e-02 2.3755651568491752e-03 -7.7032365135523917e-02  -1.1880677086781064e-02 3.1841407848037643e-03 -1.0776699575056160e-01  -1.3214659842609260e-02 4.0784963754118683e-03 -1.4240550995131485e-01  -1.4365754571729117e-02 5.0466624429943152e-03 -1.8043656598631672e-01  -1.5340792968032436e-02 6.0770319761357357e-03 -2.2136530566983742e-01  -1.6148328267953257e-02 7.1585580859036138e-03 -2.6471809663293738e-01  -1.6798731479181102e-02 8.2809061398633008e-03 -3.1004747223767526e-01  -1.7304279367302292e-02 9.4345934668680909e-03 -3.5693730123377088e-01  -1.7679228363693796e-02 1.0611127255980060e-02 -4.0500816895454300e-01  -1.7939873019674080e-02 1.1803143555398169e-02 -4.5392293420118596e-01  -1.8104588673014482e-02 1.3004547588081934e-02 -5.0339242143032070e-01  -1.8193854625817841e-02 1.4210657863156392e-02 -5.5318120765589407e-01  -1.8230274426985098e-02 1.5418359640280927e-02 -6.0311348410818266e-01  -1.8239015294575889e-02 1.6626052968328107e-02 -6.5307932151790382e-01  0.0000000000000000e+00 0.0000000000000000e+00 0.0000000000000000e+00  -2.3706703510562575e-03 3.2080728172223456e-04 -3.5249424265504921e-03  -4.6773062410535990e-03 6.8828241246255664e-04 -1.3291721203317414e-02  -6.8165492375377576e-03 1.1726638581000405e-03 -2.9077812179658453e-02  -8.7608495636182747e-03 1.7685016097247607e-03 -5.0365159970178458e-02  -1.0507761131279807e-02 2.4701545242392020e-03 -7.6619213512797046e-02  -1.2059351909611177e-02 3.2683770827946481e-03 -1.0730805058644005e-01  -1.3419419112900824e-02 4.1521167455022406e-03 -1.4190759984985146e-01  -1.4593294402908101e-02 5.1098314002308949e-03 -1.7990599453547843e-01  -1.5587926528454251e-02 6.1301410542696664e-03 -2.2080796892040655e-01  -1.6411996841683669e-02 7.2021525567423864e-03 -2.6413948506065088e-01  -1.7076027968285435e-02 8.3156602077951725e-03 -3.0945262817121244e-01  -1.7592477523061905e-02 9.4613034418045781e-03 -3.5633075826681471e-01  -1.7975815068192989e-02 1.0630710965688999e-02 -4.0439388367015661e-01  -1.8242582467811432e-02 1.1816641399084659e-02 -4.5330421457815084e-01  -1.8411438602143851e-02 1.3013122968412186e-02 -5.0277185455134277e-01  -1.8503186975090628e-02 1.4215594473537563e-02 -5.5256058996754209e-01  -1.8540779316134216e-02 1.5421069863649852e-02 -6.0249375073333955e-01  -1.8549778497367688e-02 1.6628293333261945e-02 -6.5246047909884675e-01  0.0000000000000000e+00 0.0000000000000000e+00 0.0000000000000000e+00  -2.3458804888822665e-03 4.2295524177514096e-04 -3.3521373033823447e-03  -4.6952746422124821e-03 8.0464034939147812e-04 -1.2997079436145823e-02  -6.8791818145070910e-03 1.2881306230148690e-03 -2.8703251858523769e-02  -8.8628166047465574e-03 1.8765216272874595e-03 -4.9931401033286561e-02  -1.0644642665546204e-02 2.5681732692781961e-03 -7.6138471895741106e-02  -1.2227375251565753e-02 3.3554978297718136e-03 -1.0678892519135511e-01  -1.3615075027958697e-02 4.2281900274001583e-03 -1.4135710125452350e-01  -1.4813208208939381e-02 5.1750672638342845e-03 -1.7933030873640565e-01  -1.5828830582989655e-02 6.1849546491007899e-03 -2.2021271166621273e-01  -1.6670738057304450e-02 7.2471069667879558e-03 -2.6352975588357458e-01  -1.7349589332264263e-02 8.3514475723109761e-03 -3.0883298584758873e-01  -1.7878006200184048e-02 9.4887404270375380e-03 -3.5570516528461227e-01  -1.8270654019831582e-02 1.0650739163302718e-02 -4.0376563842068175e-01  -1.8544304229745651e-02 1.1830329009124696e-02 -4.5267587887886718e-01  -1.8717881021752265e-02 1.3021666421659589e-02 -5.0214518001950725e-01  -1.8812497804231287e-02 1.4220317867422347e-02 -5.5193644668422270e-01  -1.8851470313844584e-02 1.5423427127031552e-02 -6.0187206349371980e-01  -1.8860744525011658e-02 1.6630156204122969e-02 -6.5184024209761737e-01  0.0000000000000000e+00 0.0000000000000000e+00 0.0000000000000000e+00  -2.2505646684447471e-03 5.3446817779621131e-04 -3.1126072247022870e-03  -4.6409464403753186e-03 9.2449951609232411e-04 -1.2624999048394351e-02  -6.8735517571129065e-03 1.4036402310795965e-03 -2.8253597126455195e-02  -8.9017168521838986e-03 1.9831032677676457e-03 -4.9427871913758539e-02  -1.0724498266235921e-02 2.6643143822994079e-03 -7.5594696878117693e-02  -1.2344718339572238e-02 3.4407253355167831e-03 -1.0621400918212047e-01  -1.3766412983135580e-02 4.3025108726771318e-03 -1.4075811701429261e-01  -1.4995035590552477e-02 5.2387411452667612e-03 -1.7871327786726462e-01  -1.6037656864368425e-02 6.2384039177494537e-03 -2.1958295146810489e-01  -1.6903113803580928e-02 7.2908840994066852e-03 -2.6289196883375981e-01  -1.7602132733338556e-02 8.3862256408000126e-03 -3.0819124701368311e-01  -1.8147431409458459e-02 9.5153120869963092e-03 -3.5506286974257811e-01  -1.8553801544991179e-02 1.0670018372480983e-02 -4.0312543327019140e-01  -1.8838173220158308e-02 1.1843353318414187e-02 -4.5203958971778996e-01  -1.9019663649848216e-02 1.3029599491230634e-02 -5.0151373586329206e-01  -1.9119617354769632e-02 1.4224455087780341e-02 -5.5130980502451765e-01  -1.9161682479206167e-02 1.5425175848748730e-02 -6.0124910627051564e-01  -1.9171963022551530e-02 1.6631410082842180e-02 -6.5121892075907606e-01  0.0000000000000000e+00 0.0000000000000000e+00 0.0000000000000000e+00  -1.1218250603470654e-03 -4.4325147763743739e-05 -3.4565029302258627e-03  -2.1264992073550802e-03 2.3606977152560804e-04 -1.3554228166399070e-02  -3.0379518488682332e-03 6.7083754434246507e-04 -2.9719242763433237e-02  -3.8637035035805826e-03 1.2425554106700323e-03 -5.1372884892881839e-02  -4.6053108837989130e-03 1.9331198604467790e-03 -7.7966643299936703e-02  -5.2636734268979172e-03 2.7276320463092856e-03 -1.0896389853022520e-01  -5.8403243490880979e-03 3.6125909100403670e-03 -1.4383902845927068e-01  -6.3375315855124185e-03 4.5752573459556948e-03 -1.8207996187298903e-01  -6.7582983889361032e-03 5.6034842584439942e-03 -2.2319192035853758e-01  -7.1063869366502063e-03 6.6857317385892265e-03 -2.6670179798819299e-01  -7.3863546364241316e-03 7.8111535403068188e-03 -3.1216297211158833e-01  -7.6035905041851341e-03 8.9697129074564775e-03 -3.5916043342982862e-01  -7.7643465031831237e-03 1.0152312099713396e-02 -4.0731616078078531e-01  -7.8757624471544156e-03 1.1350929557425730e-02 -4.5629468334306467e-01  -7.9458852937864029e-03 1.2558762447333748e-02 -5.0580878290586717e-01  -7.9836892923429662e-03 1.3770371007813446e-02 -5.5562529804447935e-01  -7.9991129477309329e-03 1.4981799489083344e-02 -6.0557105507378717e-01  -8.0028814680771811e-03 1.6190770485031591e-02 -6.5553928249195093e-01  0.0000000000000000e+00 0.0000000000000000e+00 0.0000000000000000e+00  -1.1058838734391517e-03 3.0774434597091164e-05 -3.5509985744061278e-03  -2.1677366799123152e-03 2.9683300015012929e-04 -1.3627746688014586e-02  -3.1193344061106977e-03 7.2601350206021389e-04 -2.9719871465156516e-02  -3.9817090585737179e-03 1.2922763130329053e-03 -5.1292289695214488e-02  -4.7562627581493695e-03 1.9774281281052879e-03 -7.7806671921685319e-02  -5.4440554407750230e-03 2.7666025764520336e-03 -1.0872980733636035e-01  -6.0467396104261105e-03 3.6463534934120410e-03 -1.4353728395831106e-01  -6.5666804693758664e-03 4.6039934696320830e-03 -1.8171746616204218e-01  -7.0069828701164339e-03 5.6274259131307430e-03 -2.2277570016762629e-01  -7.3715301954761451e-03 6.7051626361191736e-03 -2.6623885711443007e-01  -7.6650279913121700e-03 7.8264111391626954e-03 -3.1166020133858824e-01  -7.8930441155934377e-03 8.9811904123333168e-03 -3.5862453903388131e-01  -8.0620423822409890e-03 1.0160460124437758e-02 -4.0675359726645410e-01  -8.1794090715835120e-03 1.1356257335270813e-02 -4.5571158495677461e-01  -8.2534726603432987e-03 1.2561838688954463e-02 -5.0521089078193526e-01  -8.2935206312710237e-03 1.3771825211573260e-02 -5.5501787719116491e-01  -8.3098462494108020e-03 1.4982322098532234e-02 -6.0495876986619301e-01  -8.3139011604840222e-03 1.6190958613941486e-02 -6.5492600883153773e-01  0.0000000000000000e+00 0.0000000000000000e+00 0.0000000000000000e+00  -1.1213555467211166e-03 8.1166119321959745e-05 -3.5889939870507514e-03  -2.2174788899133953e-03 3.5143069999387429e-04 -1.3625009810737970e-02  -3.2069441726429587e-03 7.7839096722179247e-04 -2.9648400025949911e-02  -4.1043960850678431e-03 1.3403458275370547e-03 -5.1146206833504432e-02  -4.9108289095396631e-03 2.0205789218929182e-03 -7.7588237837275906e-02  -5.6271898619943139e-03 2.8046959350714485e-03 -1.0844424777352013e-01  -6.2551544788808323e-03 3.6794423536408495e-03 -1.4319090571943319e-01  -6.7971560201431176e-03 4.6322265918590719e-03 -1.8131693269591714e-01  -7.2563959606508320e-03 5.6510171867589975e-03 -2.2232773024149624e-01  -7.6368830999181533e-03 6.7243819537239182e-03 -2.6575007754773200e-01  -7.9434789047225264e-03 7.8415825667806100e-03 -3.1113705488586002e-01  -8.1819392223152505e-03 8.9926927061108348e-03 -3.5807321051843938e-01  -8.3589493080441432e-03 1.0168727792015813e-02 -4.0617994430151244e-01  -8.4821514655378048e-03 1.1361781461721935e-02 -4.5512106821769049e-01  -8.5601648266808925e-03 1.2565167065501264e-02 -5.0460850156610371e-01  -8.6025976043812378e-03 1.3773562981604889e-02 -5.5440805941136695e-01  -8.6200875310381044e-03 1.4983139235861941e-02 -6.0434532385013173e-01  -8.6245671817062244e-03 1.6191513206491183e-02 -6.5431191511235676e-01  0.0000000000000000e+00 0.0000000000000000e+00 0.0000000000000000e+00  -1.1459779350731706e-03 1.2364298469187595e-04 -3.5748282922383329e-03  -2.2749112945776679e-03 4.0280884478855427e-04 -1.3548257248559611e-02  -3.3010596219598940e-03 8.3026868407654205e-04 -2.9501004724590277e-02  -4.2328791902409395e-03 1.3890600373927641e-03 -5.0928882903015706e-02  -5.0705025454684865e-03 2.0647256631713927e-03 -7.7305275031132756e-02  -5.8147473682406935e-03 2.8438513740706877e-03 -1.0810143635645694e-01  -6.4673270735225189e-03 3.7135579905283917e-03 -1.4279459901171135e-01  -7.0307522966296622e-03 4.6614154857881574e-03 -1.8087362222109382e-01  -7.5083288622468719e-03 5.6754814962058772e-03 -2.2184383987423886e-01  -7.9041984070741533e-03 6.7443891241150732e-03 -2.6523184713350673e-01  -8.2233858169681526e-03 7.8574581637024226e-03 -3.1059045712176270e-01  -8.4718425753426332e-03 9.0048189673509142e-03 -3.5750387862506705e-01  -8.6564831435466567e-03 1.0177543967332021e-02 -4.0559310202964294e-01  -8.7852136989883343e-03 1.1367784312153318e-02 -4.5452145925217080e-01  -8.8669523976868912e-03 1.2568910446074159e-02 -5.0400031755426644e-01  -8.9116378735850394e-03 1.3775657258981557e-02 -5.5379486657590560e-01  -8.9302511931564164e-03 1.4984263044189780e-02 -6.0372998081095108e-01  -8.9351197546378193e-03 1.6192430370128335e-02 -6.5369640088778358e-01  0.0000000000000000e+00 0.0000000000000000e+00 0.0000000000000000e+00  -1.1691957500760369e-03 1.6587990985012614e-04 -3.5135385387533133e-03  -2.3336614280259618e-03 4.5447168294124757e-04 -1.3401169205210499e-02  -3.3971272488972476e-03 8.8351294607577657e-04 -2.9278503390233371e-02  -4.3634902916050928e-03 1.4396015441273829e-03 -5.0639784515168276e-02  -5.2322226735273102e-03 2.1107806729162002e-03 -7.6956746558592901e-02  -6.0041892523048125e-03 2.8848196063430503e-03 -1.0770019981751965e-01  -6.6811954904480737e-03 3.7493227921839276e-03 -1.4234720637780890e-01  -7.2658480458755344e-03 4.6920670937455134e-03 -1.8038645182983393e-01  -7.7615649253617806e-03 5.7012180266510209e-03 -2.2132304185247845e-01  -8.1726247400190962e-03 6.7654823403507239e-03 -2.6468328048363043e-01  -8.5042185344591670e-03 7.8742423621629681e-03 -3.1001962434990299e-01  -8.7624956708466130e-03 9.0176880778423014e-03 -3.5691585825201638e-01  -8.9546019123177955e-03 1.0186951396522783e-02 -4.0499247907214481e-01  -9.0887094233338787e-03 1.1374243318930371e-02 -4.5391225407305830e-01  -9.1740382371655518e-03 1.2572993601989119e-02 -5.0338591401309529e-01  -9.2208640424681475e-03 1.3777994658142922e-02 -5.5317794160503542e-01  -9.2405187774209033e-03 1.4985555851962370e-02 -6.0311243081891686e-01  -9.2456989100648777e-03 1.6193549274544656e-02 -6.5307921049722972e-01  0.0000000000000000e+00 0.0000000000000000e+00 0.0000000000000000e+00  -1.1867557766824643e-03 2.1369501420242807e-04 -3.4037654832690658e-03  -2.3893950254850276e-03 5.0983705061261443e-04 -1.3183736309055193e-02  -3.4915354138243637e-03 9.3986029186267741e-04 -2.8981312913150752e-02  -4.4930125168388515e-03 1.4929456749872788e-03 -5.0279010647490442e-02  -5.3931512433778046e-03 2.1593961634307039e-03 -7.6542510652100701e-02  -6.1930564117584023e-03 2.9280941706637856e-03 -1.0724029133727758e-01  -6.8946720392954750e-03 3.7871287207441773e-03 -1.4184844772833674e-01  -7.5007120866800196e-03 4.7244929825819302e-03 -1.7985514070959044e-01  -8.0147095019035518e-03 5.7284669741488239e-03 -2.2076506911792107e-01  -8.4410796324785337e-03 6.7878354982155321e-03 -2.6410413130156046e-01  -8.7851781559529895e-03 7.8920468157028731e-03 -3.0942433509279554e-01  -9.0533502437469861e-03 9.0313535967938771e-03 -3.5630895563762749e-01  -9.2529706846984812e-03 1.0196950222332387e-02 -4.0437791176063453e-01  -9.3924753053478850e-03 1.1381110672613827e-02 -4.5329332103442721e-01  -9.4813841389050895e-03 1.2577327526901463e-02 -5.0276519214681503e-01  -9.5303130891385233e-03 1.3780453524598578e-02 -5.5255721576780559e-01  -9.5509604177166380e-03 1.4986870025730136e-02 -6.0249262765174594e-01  -9.5563804694999751e-03 1.6194682628506929e-02 -6.5246032646999141e-01  0.0000000000000000e+00 0.0000000000000000e+00 0.0000000000000000e+00  -1.1954498114667002e-03 2.7412959464707747e-04 -3.2360771912482247e-03  -2.4374216233401082e-03 5.7352774425869254e-04 -1.2890913229976101e-02  -3.5792878054156530e-03 1.0023677458328806e-03 -2.8607342573991966e-02  -4.6165548686632448e-03 1.5512764313390700e-03 -4.9845413467316448e-02  -5.5487537981760799e-03 2.2122726450879292e-03 -7.6061751079895976e-02  -6.3772693434143461e-03 2.9750692654214829e-03 -1.0672106091554887e-01  -7.1041621795597688e-03 3.8281367701559804e-03 -1.4129779307602383e-01  -7.7322363677266512e-03 4.7596530208763926e-03 -1.7927926390443510e-01  -8.2651289969574004e-03 5.7580046188003744e-03 -2.2016959523719926e-01  -8.7073837797425630e-03 6.8120544807499890e-03 