<?xml version="1.0"?>
<VTKFile type="UnstructuredGrid"  version="0.1"  >
<UnstructuredGrid>
<Piece  NumberOfPoints="760" NumberOfCells="3024">
<Points>
<DataArray  type="Float64"  NumberOfComponents="3"  format="ascii">0 0 0  0.05555555555555555 0 0  0.1111111111111111 0 0  0.1666666666666667 0 0  0.2222222222222222 0 0  0.2777777777777778 0 0  0.3333333333333333 0 0  0.3888888888888889 0 0  0.4444444444444444 0 0  0.5 0 0  0.5555555555555556 0 0  0.6111111111111112 0 0  0.6666666666666666 0 0  0.7222222222222222 0 0  0.7777777777777778 0 0  0.8333333333333334 0 0  0.8888888888888888 0 0  0.9444444444444444 0 0  1 0 0  0 0.01428571428571429 0  0.05555555555555555 0.01428571428571429 0  0.1111111111111111 0.01428571428571429 0  0.1666666666666667 0.01428571428571429 0  0.2222222222222222 0.01428571428571429 0  0.2777777777777778 0.01428571428571429 0  0.3333333333333333 0.01428571428571429 0  0.3888888888888889 0.01428571428571429 0  0.4444444444444444 0.01428571428571429 0  0.5 0.01428571428571429 0  0.5555555555555556 0.01428571428571429 0  0.6111111111111112 0.01428571428571429 0  0.6666666666666666 0.01428571428571429 0  0.7222222222222222 0.01428571428571429 0  0.7777777777777778 0.01428571428571429 0  0.8333333333333334 0.01428571428571429 0  0.8888888888888888 0.01428571428571429 0  0.9444444444444444 0.01428571428571429 0  1 0.01428571428571429 0  0 0.02857142857142857 0  0.05555555555555555 0.02857142857142857 0  0.1111111111111111 0.02857142857142857 0  0.1666666666666667 0.02857142857142857 0  0.2222222222222222 0.02857142857142857 0  0.2777777777777778 0.02857142857142857 0  0.3333333333333333 0.02857142857142857 0  0.3888888888888889 0.02857142857142857 0  0.4444444444444444 0.02857142857142857 0  0.5 0.02857142857142857 0  0.5555555555555556 0.02857142857142857 0  0.6111111111111112 0.02857142857142857 0  0.6666666666666666 0.02857142857142857 0  0.7222222222222222 0.02857142857142857 0  0.7777777777777778 0.02857142857142857 0  0.8333333333333334 0.02857142857142857 0  0.8888888888888888 0.02857142857142857 0  0.9444444444444444 0.02857142857142857 0  1 0.02857142857142857 0  0 0.04285714285714286 0  0.05555555555555555 0.04285714285714286 0  0.1111111111111111 0.04285714285714286 0  0.1666666666666667 0.04285714285714286 0  0.2222222222222222 0.04285714285714286 0  0.2777777777777778 0.04285714285714286 0  0.3333333333333333 0.04285714285714286 0  0.3888888888888889 0.04285714285714286 0  0.4444444444444444 0.04285714285714286 0  0.5 0.04285714285714286 0  0.5555555555555556 0.04285714285714286 0  0.6111111111111112 0.04285714285714286 0  0.6666666666666666 0.04285714285714286 0  0.7222222222222222 0.04285714285714286 0  0.7777777777777778 0.04285714285714286 0  0.8333333333333334 0.04285714285714286 0  0.8888888888888888 0.04285714285714286 0  0.9444444444444444 0.04285714285714286 0  1 0.04285714285714286 0  0 0.05714285714285715 0  0.05555555555555555 0.05714285714285715 0  0.1111111111111111 0.05714285714285715 0  0.1666666666666667 0.05714285714285715 0  0.2222222222222222 0.05714285714285715 0  0.2777777777777778 0.05714285714285715 0  0.3333333333333333 0.05714285714285715 0  0.3888888888888889 0.05714285714285715 0  0.4444444444444444 0.05714285714285715 0  0.5 0.05714285714285715 0  0.5555555555555556 0.05714285714285715 0  0.6111111111111112 0.05714285714285715 0  0.6666666666666666 0.05714285714285715 0  0.7222222222222222 0.05714285714285715 0  0.7777777777777778 0.05714285714285715 0  0.8333333333333334 0.05714285714285715 0  0.8888888888888888 0.05714285714285715 0  0.9444444444444444 0.05714285714285715 0  1 0.05714285714285715 0  0 0.07142857142857142 0  0.05555555555555555 0.07142857142857142 0  0.1111111111111111 0.07142857142857142 0  0.1666666666666667 0.07142857142857142 0  0.2222222222222222 0.07142857142857142 0  0.2777777777777778 0.07142857142857142 0  0.3333333333333333 0.07142857142857142 0  0.3888888888888889 0.07142857142857142 0  0.4444444444444444 0.07142857142857142 0  0.5 0.07142857142857142 0  0.5555555555555556 0.07142857142857142 0  0.6111111111111112 0.07142857142857142 0  0.6666666666666666 0.07142857142857142 0  0.7222222222222222 0.07142857142857142 0  0.7777777777777778 0.07142857142857142 0  0.8333333333333334 0.07142857142857142 0  0.8888888888888888 0.07142857142857142 0  0.9444444444444444 0.07142857142857142 0  1 0.07142857142857142 0  0 0.08571428571428573 0  0.05555555555555555 0.08571428571428573 0  0.1111111111111111 0.08571428571428573 0  0.1666666666666667 0.08571428571428573 0  0.2222222222222222 0.08571428571428573 0  0.2777777777777778 0.08571428571428573 0  0.3333333333333333 0.08571428571428573 0  0.3888888888888889 0.08571428571428573 0  0.4444444444444444 0.08571428571428573 0  0.5 0.08571428571428573 0  0.5555555555555556 0.08571428571428573 0  0.6111111111111112 0.08571428571428573 0  0.6666666666666666 0.08571428571428573 0  0.7222222222222222 0.08571428571428573 0  0.7777777777777778 0.08571428571428573 0  0.8333333333333334 0.08571428571428573 0  0.8888888888888888 0.08571428571428573 0  0.9444444444444444 0.08571428571428573 0  1 0.08571428571428573 0  0 0.1 0  0.05555555555555555 0.1 0  0.1111111111111111 0.1 0  0.1666666666666667 0.1 0  0.2222222222222222 0.1 0  0.2777777777777778 0.1 0  0.3333333333333333 0.1 0  0.3888888888888889 0.1 0  0.4444444444444444 0.1 0  0.5 0.1 0  0.5555555555555556 0.1 0  0.6111111111111112 0.1 0  0.6666666666666666 0.1 0  0.7222222222222222 0.1 0  0.7777777777777778 0.1 0  0.8333333333333334 0.1 0  0.8888888888888888 0.1 0  0.9444444444444444 0.1 0  1 0.1 0  0 0 0.01  0.05555555555555555 0 0.01  0.1111111111111111 0 0.01  0.1666666666666667 0 0.01  0.2222222222222222 0 0.01  0.2777777777777778 0 0.01  0.3333333333333333 0 0.01  0.3888888888888889 0 0.01  0.4444444444444444 0 0.01  0.5 0 0.01  0.5555555555555556 0 0.01  0.6111111111111112 0 0.01  0.6666666666666666 0 0.01  0.7222222222222222 0 0.01  0.7777777777777778 0 0.01  0.8333333333333334 0 0.01  0.8888888888888888 0 0.01  0.9444444444444444 0 0.01  1 0 0.01  0 0.01428571428571429 0.01  0.05555555555555555 0.01428571428571429 0.01  0.1111111111111111 0.01428571428571429 0.01  0.1666666666666667 0.01428571428571429 0.01  0.2222222222222222 0.01428571428571429 0.01  0.2777777777777778 0.01428571428571429 0.01  0.3333333333333333 0.01428571428571429 0.01  0.3888888888888889 0.01428571428571429 0.01  0.4444444444444444 0.01428571428571429 0.01  0.5 0.01428571428571429 0.01  0.5555555555555556 0.01428571428571429 0.01  0.6111111111111112 0.01428571428571429 0.01  0.6666666666666666 0.01428571428571429 0.01  0.7222222222222222 0.01428571428571429 0.01  0.7777777777777778 0.01428571428571429 0.01  0.8333333333333334 0.01428571428571429 0.01  0.8888888888888888 0.01428571428571429 0.01  0.9444444444444444 0.01428571428571429 0.01  1 0.01428571428571429 0.01  0 0.02857142857142857 0.01  0.05555555555555555 0.02857142857142857 0.01  0.1111111111111111 0.02857142857142857 0.01  0.1666666666666667 0.02857142857142857 0.01  0.2222222222222222 0.02857142857142857 0.01  0.2777777777777778 0.02857142857142857 0.01  0.3333333333333333 0.02857142857142857 0.01  0.3888888888888889 0.02857142857142857 0.01  0.4444444444444444 0.02857142857142857 0.01  0.5 0.02857142857142857 0.01  0.5555555555555556 0.02857142857142857 0.01  0.6111111111111112 0.02857142857142857 0.01  0.6666666666666666 0.02857142857142857 0.01  0.7222222222222222 0.02857142857142857 0.01  0.7777777777777778 0.02857142857142857 0.01  0.8333333333333334 0.02857142857142857 0.01  0.8888888888888888 0.02857142857142857 0.01  0.9444444444444444 0.02857142857142857 0.01  1 0.02857142857142857 0.01  0 0.04285714285714286 0.01  0.05555555555555555 0.04285714285714286 0.01  0.1111111111111111 0.04285714285714286 0.01  0.1666666666666667 0.04285714285714286 0.01  0.2222222222222222 0.04285714285714286 0.01  0.2777777777777778 0.04285714285714286 0.01  0.3333333333333333 0.04285714285714286 0.01  0.3888888888888889 0.04285714285714286 0.01  0.4444444444444444 0.04285714285714286 0.01  0.5 0.04285714285714286 0.01  0.5555555555555556 0.04285714285714286 0.01  0.6111111111111112 0.04285714285714286 0.01  0.6666666666666666 0.04285714285714286 0.01  0.7222222222222222 0.04285714285714286 0.01  0.7777777777777778 0.04285714285714286 0.01  0.8333333333333334 0.04285714285714286 0.01  0.8888888888888888 0.04285714285714286 0.01  0.9444444444444444 0.04285714285714286 0.01  1 0.04285714285714286 0.01  0 0.05714285714285715 0.01  0.05555555555555555 0.05714285714285715 0.01  0.1111111111111111 0.05714285714285715 0.01  0.1666666666666667 0.05714285714285715 0.01  0.2222222222222222 0.05714285714285715 0.01  0.2777777777777778 0.05714285714285715 0.01  0.3333333333333333 0.05714285714285715 0.01  0.3888888888888889 0.05714285714285715 0.01  0.4444444444444444 0.05714285714285715 0.01  0.5 0.05714285714285715 0.01  0.5555555555555556 0.05714285714285715 0.01  0.6111111111111112 0.05714285714285715 0.01  0.6666666666666666 0.05714285714285715 0.01  0.7222222222222222 0.05714285714285715 0.01  0.7777777777777778 0.05714285714285715 0.01  0.8333333333333334 0.05714285714285715 0.01  0.8888888888888888 0.05714285714285715 0.01  0.9444444444444444 0.05714285714285715 0.01  1 0.05714285714285715 0.01  0 0.07142857142857142 0.01  0.05555555555555555 0.07142857142857142 0.01  0.1111111111111111 0.07142857142857142 0.01  0.1666666666666667 0.07142857142857142 0.01  0.2222222222222222 0.07142857142857142 0.01  0.2777777777777778 0.07142857142857142 0.01  0.3333333333333333 0.07142857142857142 0.01  0.3888888888888889 0.07142857142857142 0.01  0.4444444444444444 0.07142857142857142 0.01  0.5 0.07142857142857142 0.01  0.5555555555555556 0.07142857142857142 0.01  0.6111111111111112 0.07142857142857142 0.01  0.6666666666666666 0.07142857142857142 0.01  0.7222222222222222 0.07142857142857142 0.01  0.7777777777777778 0.07142857142857142 0.01  0.8333333333333334 0.07142857142857142 0.01  0.8888888888888888 0.07142857142857142 0.01  
[...]
<PointData  Vectors="f_33"> 
<DataArray  type="Float64"  Name="f_33"  NumberOfComponents="3" format="ascii">0.0000000000000000e+00 0.0000000000000000e+00 0.0000000000000000e+00  3.4996014497807549e-03 2.2285055782008699e-04 5.0210719834597461e-03  6.5298299227805898e-03 -1.3751777574977727e-04 1.9236903773652669e-02  9.2931888063742443e-03 -7.1894188508464497e-04 4.1995954608115248e-02  1.1793649652410353e-02 -1.4617234698805204e-03 7.2479551885207938e-02  1.4035371281556594e-02 -2.3351448105608120e-03 1.0991241346159485e-01  1.6021962557435810e-02 -3.3189602264554626e-03 1.5353619999713838e-01  1.7758767537147030e-02 -4.3966611229708319e-03 2.0260855507972567e-01  1.9253211821571029e-02 -5.5533946121900197e-03 2.5640683777457102e-01  2.0514908055941829e-02 -6.7753156102230176e-03 3.1423349182587168e-01  2.1555767263766172e-02 -8.0494429711672078e-03 3.7542226082883895e-01  2.2390111789865053e-02 -9.3636999406601484e-03 4.3934495416327884e-01  2.3034774028588095e-02 -1.0707024830526319e-02 5.0541860575557496e-01  2.3509175601708288e-02 -1.2069509867181770e-02 5.7311292225151700e-01  2.3835387056894291e-02 -1.3442552818190547e-02 6.4195794404778017e-01  2.4038171660135922e-02 -1.4819017157825052e-02 7.1155185921548936e-01  2.4145032972750991e-02 -1.6193400163854961e-02 7.8156892666839761e-01  2.4186327466000985e-02 -1.7561994428093860e-02 8.5176755790800285e-01  2.4195169569128878e-02 -1.8923192034365641e-02 9.2199944546995549e-01  0.0000000000000000e+00 0.0000000000000000e+00 0.0000000000000000e+00  3.3374496221956181e-03 4.9727773337521157e-05 5.1685529126801952e-03  6.4361271121767668e-03 -2.9090292697556304e-04 1.9341014712744620e-02  9.2572955566376600e-03 -8.5767381689156675e-04 4.1996073666045707e-02  1.1811649677879427e-02 -1.5862767976357196e-03 7.2364917693472544e-02  1.4103071145065989e-02 -2.4457662619655771e-03 1.0968599125150247e-01  1.6135182661638756e-02 -3.4159387788397053e-03 1.5320554372192671e-01  1.7913346055208605e-02 -4.4803895961567459e-03 2.0218285376160783e-01  1.9444991543877143e-02 -5.6243824893326992e-03 2.5589586341291765e-01  2.0739739620266876e-02 -6.8341958179488861e-03 3.1364717297834355e-01  2.1809526719139223e-02 -8.0969783187811745e-03 3.7477047766439969e-01  2.2668726174037691e-02 -9.4007888087796650e-03 4.3863741177309085e-01  2.3334251599857546e-02 -1.0734705734954775e-02 5.0466473315273497e-01  2.3825639217934336e-02 -1.2088964802473850e-02 5.7232177771180859e-01  2.4165109884701445e-02 -1.3455109245942690e-02 6.4113811943494070e-01  2.4377613328143258e-02 -1.4826148326771925e-02 7.1071137880135515e-01  2.4490867422544783e-02 -1.6196723252332811e-02 7.8071513157105243e-01  2.4535479117755703e-02 -1.7563251087861362e-02 8.5090693738713918e-01  2.4545454445876691e-02 -1.8923835299652882e-02 9.2113723624640564e-01  0.0000000000000000e+00 0.0000000000000000e+00 0.0000000000000000e+00  3.3229534139397844e-03 -8.2441777004512671e-05 5.2264242495893383e-03  6.4490845625742145e-03 -4.4068996185529254e-04 1.9342547556846473e-02  9.3127714115484109e-03 -1.0023719848340732e-03 4.1897645063100737e-02  1.1909635722748828e-02 -1.7194877860179909e-03 7.2160282131833065e-02  1.4240742186491509e-02 -2.5654333697113026e-03 1.0937903637573886e-01  1.6309013223660407e-02 -3.5215763562643182e-03 1.5280391090230000e-01  1.8119631882785255e-02 -4.5721219442919972e-03 2.0169555339315423e-01  1.9680012899797938e-02 -5.7026271029248657e-03 2.5533235019423389e-01  2.0999831575913279e-02 -6.8995606728177034e-03 3.1301695282488046e-01  2.2091124687260936e-02 -8.1502298464721720e-03 3.7408291039201186e-01  2.2968404102591041e-02 -9.4428437725923679e-03 4.3790158457232359e-01  2.3648758365645069e-02 -1.0766630916032485e-02 5.0388935780497701e-01  2.4151935187233985e-02 -1.2111978702018024e-02 5.7151509407964485e-01  2.4500404136583075e-02 -1.3470583358257260e-02 6.4030779879633304e-01  2.4719400172235693e-02 -1.4835606197617464e-02 7.0986442400655525e-01  2.4836953870402689e-02 -1.6201836818219375e-02 7.7985776952294794e-01  2.4883989283702650e-02 -1.7565837285275377e-02 8.5004448618488004e-01  2.4894900178356431e-02 -1.8925655639875315e-02 9.2027382351845888e-01  0.0000000000000000e+00 0.0000000000000000e+00 0.0000000000000000e+00  3.3329387771941833e-03 -1.9633298619175688e-04 5.2094721097714321e-03  6.4865249906245750e-03 -5.8518986150407572e-04 1.9238200369634629e-02  9.3909539923676642e-03 -1.1493327366879891e-03 4.1692484131764268e-02  1.2028419587922555e-02 -1.8575604946557750e-03 7.1855791418598616e-02  1.4397068786965922e-02 -2.6906129648663563e-03 1.0898172652742982e-01  1.6499287347559378e-02 -3.6326250113778093e-03 1.5232217181602056e-01  1.8340169285285857e-02 -4.6688855720632763e-03 2.0113844850248291e-01  1.9927158093140204e-02 -5.7854257078135277e-03 2.5470908323835895e-01  2.1270012959017474e-02 -6.9689749429965898e-03 3.1233660562592130e-01  2.2380895510185305e-02 -8.2070281253547161e-03 3.7335428939235271e-01  2.3274479604185643e-02 -9.4879587027033793e-03 4.3713310777406184e-01  2.3968052207334011e-02 -1.0801153536498498e-02 5.0308895494071448e-01  2.4481596325523616e-02 -1.2137158180276591e-02 5.7069010980121171e-01  2.4837854433199826e-02 -1.3487827590135063e-02 6.3946489536100959e-01  2.5062372157033917e-02 -1.4846480308918939e-02 7.0900948252055751e-01  2.5183521415199774e-02 -1.6208058569506668e-02 7.7899578888582921e-01  2.5232559816962079e-02 -1.7569281118827274e-02 8.4917946725768012e-01  2.5244212723849600e-02 -1.8928363747630423e-02 9.1940851226401232e-01  0.0000000000000000e+00 0.0000000000000000e+00 0.0000000000000000e+00  3.3369742234798162e-03 -3.0725761754504788e-04 5.1236647368775633e-03  6.5259004090933992e-03 -7.2872845533423103e-04 1.9033040368549550e-02  9.4742278422699361e-03 -1.2982423132773576e-03 4.1381105582727506e-02  1.2153180323641164e-02 -1.9989605376023955e-03 7.1450241237766776e-02  1.4559359331192814e-02 -2.8194889314796679e-03 1.0849226101643025e-01  1.6695181714278223e-02 -3.7472839210177791e-03 1.5175840218197195e-01  1.8565860833202490e-02 -4.7689889468461371e-03 2.0050968317136564e-01  2.0178944804512173e-02 -5.8712254347306125e-03 2.5402434830617054e-01  2.1544306965447214e-02 -7.0410320295438379e-03 3.1160458425778348e-01  2.2674247666762345e-02 -8.2661121177787598e-03 3.7258324060820380e-01  2.3583610578471779e-02 -9.5350136027812209e-03 4.3633077791010366e-01  2.4289886782989732e-02 -1.0837287860773349e-02 5.0226248495851289e-01  2.4813299637448626e-02 -1.2163643281027274e-02 5.6984593967795516e-01  2.5176869576817886e-02 -1.3506097971949311e-02 6.3860866650662329e-01  2.5406459301025027e-02 -1.4858132438595404e-02 7.0814593966178463e-01  2.5530795049991291e-02 -1.6214845986689531e-02 7.7812868364972787e-01  2.5581489169062291e-02 -1.7573123798534797e-02 8.4831145292696586e-01  2.5593648123150667e-02 -1.8931523945407175e-02 9.1854095802924063e-01  0.0000000000000000e+00 0.0000000000000000e+00 0.0000000000000000e+00  3.3238795461804616e-03 -4.2821069635197884e-04 4.9659004934874190e-03  6.5563112048878259e-03 -8.7831703770338749e-04 1.8726459082158385e-02  9.5530572312566217e-03 -1.4516505911995189e-03 4.0963195106121779e-02  1.2275429845646507e-02 -2.1443099011567756e-03 7.0942977531892312e-02  1.4720104579461081e-02 -2.9519750448108633e-03 1.0790978949278449e-01  1.6890146591412927e-02 -3.8652101324550170e-03 1.5111171222709005e-01  1.8791087537192663e-02 -4.8719952823180600e-03 1.9980840889847681e-01  2.0430646547830583e-02 -5.9595552169128775e-03 2.5327737299268827e-01  2.1818832927098943e-02 -7.1152486426721215e-03 3.1082020570136210e-01  2.2968090763948072e-02 -8.3269946072118718e-03 3.7176917431273837e-01  2.3893431939751148e-02 -9.5835205669302908e-03 4.3549409823738378e-01  2.4612547495392722e-02 -1.0874546707520260e-02 5.0140954161437112e-01  2.5145896066149306e-02 -1.2190948356439120e-02 5.6898226402398944e-01  2.5516770738757435e-02 -1.3524911141044234e-02 6.3773887374530691e-01  2.5751346638533252e-02 -1.4870083023452323e-02 7.0727363043848113e-01  2.5878708090746563e-02 -1.6221726865878503e-02 7.7725634947411160e-01  2.5930848639460050e-02 -1.7576904047878313e-02 8.4744038089326146e-01  2.5943317841093279e-02 -1.8934644132457046e-02 9.1767114252109361e-01  0.0000000000000000e+00 0.0000000000000000e+00 0.0000000000000000e+00  3.2778957199554289e-03 -5.7042926296970353e-04 4.7213044833297746e-03  6.5595592927421061e-03 -1.0405937895087160e-03 1.8310319298502950e-02  9.6091001674986787e-03 -1.6127524318947327e-03 4.0434696118118250e-02  1.2377706009272774e-02 -2.2950025381902857e-03 7.0331353782091113e-02  1.4863308122045470e-02 -3.0886663019337175e-03 1.0723228131432305e-01  1.7069866839026844e-02 -3.9866448163839259e-03 1.5038045210092293e-01  1.9003269106961394e-02 -4.9779719606492445e-03 1.9903327865905340e-01  2.0671401887618769e-02 -6.0503796466607916e-03 2.5246708019149983e-01  2.2084396465320733e-02 -7.1915151791608345e-03 3.0998264261002950e-01  2.3254821771635154e-02 -8.3895044309123118e-03 3.7091149527240758e-01  2.4197836348397766e-02 -9.6332538395542781e-03 4.3462268701654733e-01  2.4931308193586958e-02 -1.0912654981964781e-02 5.0052993580127603e-01  2.5475907410261744e-02 -1.2218754016201656e-02 5.6809906272759469e-01  2.5855175459845538e-02 -1.3543908796329726e-02 6.3685563917375909e-01  2.6095574991544374e-02 -1.4881941040834562e-02 7.0639278812729223e-01  2.6226528957860599e-02 -1.6228286237692607e-02 7.7637909176551345e-01  2.6280431270800139e-02 -1.7580182788128899e-02 8.4656658046007049e-01  2.6293247543147210e-02 -1.8937231889496718e-02 9.1679937753861196e-01  0.0000000000000000e+00 0.0000000000000000e+00 0.0000000000000000e+00  3.1315531886041211e-03 -7.2496085817459548e-04 4.3828049920437429e-03  6.4601325428334903e-03 -1.2069295468002048e-03 1.7785352162722607e-02  9.5682526239625979e-03 -1.7731130639618458e-03 3.9800693820730509e-02  1.2390496403948270e-02 -2.4429493726451745e-03 6.9621745130664867e-02  1.4925615100754172e-02 -3.2220733254306102e-03 1.0646629211911506e-01  1.7177704512734104e-02 -4.1048519630502069e-03 1.4957092086745408e-01  1.9152599780299522e-02 -5.0809961345971589e-03 1.9819016646511495e-01  2.0858146849353106e-02 -6.1385938263092800e-03 2.5159885371380153e-01  2.2304468389323096e-02 -7.2655204206342689e-03 3.0909676421525706e-01  2.3504154453934549e-02 -8.4500828080106699e-03 3.7001455109511167e-01  2.4472414221912289e-02 -9.6813537489910239e-03 4.3372037194890556e-01  2.5227197599139307e-02 -1.0949388481811550e-02 4.9962698280782486e-01  2.5789289990822719e-02 -1.2245398101805536e-02 5.6719915099923646e-01  2.6182383514187394e-02 -1.3561907630852186e-02 6.3596129483031560e-01  2.6433129125756433e-02 -1.4892908687956811e-02 7.0550528286455727e-01  2.6571180114750324e-02 -1.6234013862040559e-02 7.7549834154486774e-01  2.6629288278228608e-02 -1.7582609701178399e-02 8.4569100267946073e-01  2.6643494605977109e-02 -1.8938970788623506e-02 9.1592609580877815e-01  0.0000000000000000e+00 0.0000000000000000e+00 0.0000000000000000e+00  1.6198520970525144e-03 9.1144214512275530e-05 4.8729290780437466e-03  3.0728957672914543e-03 -2.3640484408546971e-04 1.9100020715467049e-02  4.3913876015925762e-03 -7.4051609656300725e-04 4.1870304107880139e-02  5.5854793602701513e-03 -1.3998951441550271e-03 7.2365583200704395e-02  6.6573297606351755e-03 -2.1926227818199226e-03 1.0981021388914984e-01  7.6083080334176413e-03 -3.1012949654221468e-03 1.5344568162936370e-01  8.4407308477879497e-03 -4.1104296843174036e-03 2.0252949397275044e-01  9.1579898071879190e-03 -5.2055509792986350e-03 2.5633889628009127e-01  9.7645479121930365e-03 -6.3729243902962123e-03 3.1417622508314125e-01  1.0265967905831262e-02 -7.5995483185603398e-03 3.7537511549882130e-01  1.0668957228326314e-02 -8.8732419195070994e-03 4.3930726471427395e-01  1.0981412387995965e-02 -1.0182770914955635e-02 5.0538959053031041e-01  1.1212456162804241e-02 -1.1517989688982570e-02 5.7309168006250200e-01  1.1372466194658667e-02 -1.2869991587144868e-02 6.4194345142998965e-01  1.1473096563888330e-02 -1.4231264730349420e-02 7.1154296813163365e-01  1.1527301546002646e-02 -1.5595848944811188e-02 7.8156436078322111e-01  1.1549384443756880e-02 -1.6959458778367135e-02 8.5176589914602863e-01  1.1554767882183735e-02 -1.8319688972645895e-02 9.2199871513590714e-01  0.0000000000000000e+00 0.0000000000000000e+00 0.0000000000000000e+00  1.5850321239439644e-03 -1.7485541531772112e-05 5.0056897153983966e-03  3.1084218349323790e-03 -3.2449442992598331e-04 1.9203069985444708e-02  4.4734563150525906e-03 -8.2050323563239173e-04 4.1870631120165140e-02  5.7099685713692333e-03 -1.4719486905702297e-03 7.2251495001670510e-02  6.8199696706474052e-03 -2.2568050094665571e-03 1.0958436489326431e-01  7.8050539429234218e-03 -3.1577200831032913e-03 1.5311552888772814e-01  8.6676909262970864e-03 -4.1592921825125478e-03 2.0210419677187394e-01  9.4113874837527377e-03 -5.2471205418888412e-03 2.5582822166353031e-01  1.0040721177202481e-02 -6.4075439235598639e-03 3.1359010682422234e-01  1.0561389167540189e-02 -7.6276353086174612e-03 3.7472344377201583e-01  1.0980262581989397e-02 -8.8952908685303641e-03 4.3859975739304669e-01  1.1305435375936380e-02 -1.0199355723059644e-02 5.0463569143208187e-01  1.1546264045800211e-02 -1.1529765580899022e-02 5.7230046401081613e-01  1.1713397846749704e-02 -1.2877696450075202e-02 6.4112352851474275e-01  1.1818800446893235e-02 -1.4235720006495176e-02 7.1070238277123088e-01  1.1875768463361885e-02 -1.5597961057836960e-02 7.8071047747755751e-01  1.1898991111708758e-02 -1.6960218714598123e-02 8.5090523114875360e-01  1.1904760985387881e-02 -1.8319962843588760e-02 9.2113666778876579e-01  0.0000000000000000e+00 0.0000000000000000e+00 0.0000000000000000e+00  1.5955535298894663e-03 -9.0193121276116030e-05 5.0587114455767808e-03  3.1563545001074855e-03 -4.0307602244608366e-04 1.9198643666098324e-02  4.5647090147638960e-03 -8.9576634238836103e-04 4.1769367021790259e-02  5.8414478850764284e-03 -1.5409669133175426e-03 7.2045179288762001e-02  6.9880808392877164e-03 -2.3187246536101299e-03 1.0927622795075023e-01  8.0060416196441435e-03 -3.2123533844329714e-03 1.5271297700862280e-01  8.8978164634675051e-03 -4.2067231739263281e-03 2.0161615546212294e-01  9.6669858489264286e-03 -5.2875700079546978e-03 2.5526411206137456e-01  1.0318234420102516e-02 -6.4413258601892136e-03 3.1295941876359057e-01  1.0857399185609138e-02 -7.6551436691955780e-03 3.7403552652629496e-01  1.1291525371741473e-02 -8.9169965477025777e-03 4.3786368879573134e-01  1.1628916677853238e-02 -1.0215806839608117e-02 5.0386017346221290e-01  1.1879176224096835e-02 -1.1541588552297035e-02 5.7149372564730316e-01  1.2053237740386410e-02 -1.2885596788213752e-02 6.4029322878437311e-01  1.2163386767681616e-02 -1.4240482194798601e-02 7.0985551079534126e-01  1.2223272442448968e-02 -1.5600449043395739e-02 7.7985324550852986e-01  1.2247957872580199e-02 -1.6961385495203169e-02 8.5004294325685892e-01  1.2254283796062620e-02 -1.8320751008478350e-02 9.2027348039687473e-01  0.0000000000000000e+00 0.0000000000000000e+00 0.0000000000000000e+00  1.6195355558757249e-03 -1.5085976560861103e-04 5.0382044769174726e-03  3.2154458766221932e-03 -4.7633320980555071e-04 1.9089914600312088e-02  4.6653792419088739e-03 -9.6960205846653464e-04 4.1561172083633524e-02  5.9813319478223114e-03 -1.6102353360477886e-03 7.1738574169583152e-02  7.1636155872258304e-03 -2.3814592859418599e-03 1.0887729848326885e-01  8.2134774712189270e-03 -3.2679641650055179e-03 1.5222991798510704e-01  9.1334411731668463e-03 -4.2551493912538919e-03 2.0105794916203962e-01  9.9271738397303470e-03 -5.3289797710496184e-03 2.5463992747676528e-01  1.0599477967226800e-02 -6.4760137104423439e-03 3.1227831983683346e-01  1.1156340691223204e-02 -7.6834965730154135e-03 3.7330630711908480e-01  1.1604991670999227e-02 -8.9394833145295654e-03 4.3709475522896901e-01  1.1953954844237400e-02 -1.0232975602015363e-02 5.0305944300307603e-01  1.2213090574120889e-02 -1.1554066795541633e-02 5.7066852904013210e-01  1.2393627777244041e-02 -1.2894091663793577e-02 6.3945021266177171e-01  1.2508185302745101e-02 -1.4245779636397008e-02 7.0900053882674940e-01  1.2570778305535667e-02 -1.5603412699592671e-02 7.7899129820734836e-01  1.2596844525486029e-02 -1.6962972614791298e-02 8.4917800665938814e-01  1.2603662860057072e-02 -1.8322041268764116e-02 9.1940831235848552e-01  0.0000000000000000e+00 0.0000000000000000e+00 0.0000000000000000e+00  1.6417626888473396e-03 -2.1035087295122372e-04 4.9513094113820301e-03  3.2765409354302468e-03 -5.4917294290055007e-04 1.8882110884491043e-02  4.7688882553338120e-03 -1.0446238676569159e-03 4.1247229319810626e-02  6.1242935192870928e-03 -1.6814092355354039e-03 7.1330956200903600e-02  7.3421099142927668e-03 -2.4462834735027904e-03 1.0838614049470795e-01  8.4236407172718960e-03 -3.3255991866139364e-03 1.5166472128969405e-01  9.3715232576616972e-03 -4.3054368619758971e-03 2.0042796747536823e-01  1.0189537816187554e-02 -5.3720534915145815e-03 2.5395416054606651e-01  1.0882615847861696e-02 -6.5121598327576675e-03 3.1154543559089393e-01  1.1456900463593496e-02 -7.7131048334894590e-03 3.7253455271557795e-01  1.1919809613772059e-02 -8.9630308266646745e-03 4.3629186535465220e-01  1.2280090616559875e-02 -1.0251022238997721e-02 5.0223254592140965e-01  1.2547863998429526e-02 -1.1567254476328566e-02 5.6982405048216944e-01  1.2734656799600426e-02 -1.2903144456026633e-02 6.3859377805273321e-01  1.2853425173334864e-02 -1.4251502693529414e-02 7.0813687505769696e-01  1.2918559617777438e-02 -1.5606689702909704e-02 7.7812413786884538e-01  1.2945883579617304e-02 -1.6964784721117010e-02 8.4830998881053288e-01  1.2953081940931000e-02 -1.8323604819014277e-02 9.1854080531559745e-01  0.0000000000000000e+00 0.0000000000000000e+00 0.0000000000000000e+00  1.6559780181754598e-03 -2.7687749289151880e-04 4.7961159038783212e-03  3.3333317849521360e-03 -6.2640132284602287e-04 1.8575233553582784e-02  4.8699826448046421e-03 -1.1232698759298147e-03 4.0828132659435995e-02  6.2656429387602181e-03 -1.7558576467009345e-03 7.0822470299032866e-02  7.5194144441600129e-03 -2.5141112130734563e-03 1.0780255891989847e-01  8.6329226008595439e-03 -3.3859486217765900e-03 1.5101704326751619e-01  9.6089842130274022e-03 -4.3581325389875046e-03 1.9972581945596893e-01  1.0451508960047304e-02 -5.4172249426290876e-03 2.5320641896615292e-01  1.1165561325553524e-02 -6.5500977296932160e-03 3.1076039279878209e-01  1.1757440198158548e-02 -7.7442090173511034e-03 3.7171991905111118e-01  1.2234749812148957e-02 -8.9877926124507096e-03 4.3545470958490162e-01  1.2606458103300156e-02 -1.0270019241936070e-02 5.0137921137466679e-01  1.2882942714094070e-02 -1.1581149762471852e-02 5.6896006120760934e-01  1.3076025699892498e-02 -1.2912686784195293e-02 6.3772374097141094e-01  1.3198998064183346e-02 -1.4257525955329092e-02 7.0726438145069048e-01  1.3266630115525705e-02 -1.5610109453789314e-02 7.7725166849607374e-01  1.3295150933661536e-02 -1.6966615157726073e-02 8.4743882483956456e-01  1.3302633820519112e-02 -1.8325179694341585e-02 9.1767093315373727e-01  0.0000000000000000e+00 0.0000000000000000e+00 0.0000000000000000e+00  1.6573909938979981e-03 -3.6033220546112483e-04 4.5593443298609284e-03  3.3789872101859806e-03 -7.1451840930174390e-04 1.8162201824088776e-02  4.9614411521548387e-03 -1.2098317654291695e-03 4.0300959946002274e-02  6.3983201205193574e-03 -1.8366433418666975e-03 7.0211520540943470e-02  7.6889798564134821e-03 -2.5873245293264527e-03 1.0712542365665476e-01  8.8354234927788180e-03 -3.4509632688748985e-03 1.5028598642332014e-01  9.8406168284469638e-03 -4.4148593278856849e-03 1.9895077491714092e-01  1.0708575026272345e-02 -5.4658346906539500e-03 2.5239611859071431e-01  1.1444480544139915e-02 -6.5909106722204600e-03 3.0992274403005782e-01  1.2054776416517549e-02 -7.7776539951323557e-03 3.7086208895612160e-01  1.2547242435273520e-02 -9.0143934216533207e-03 4.3458309461052075e-01  1.2931056552765318e-02 -1.0290391062982282e-02 5.0049936260357719e-01  1.3216842854558620e-02 -1.1595999033902437e-02 5.6807659237909780e-01  1.3416707646174865e-02 -1.2922