<?xml version="1.0"?>
<VTKFile type="UnstructuredGrid"  version="0.1"  >
<UnstructuredGrid>
<Piece  NumberOfPoints="760" NumberOfCells="3024">
<Points>
<DataArray  type="Float64"  NumberOfComponents="3"  format="ascii">0 0 0  0.05555555555555555 0 0  0.1111111111111111 0 0  0.1666666666666667 0 0  0.2222222222222222 0 0  0.2777777777777778 0 0  0.3333333333333333 0 0  0.3888888888888889 0 0  0.4444444444444444 0 0  0.5 0 0  0.5555555555555556 0 0  0.6111111111111112 0 0  0.6666666666666666 0 0  0.7222222222222222 0 0  0.7777777777777778 0 0  0.8333333333333334 0 0  0.8888888888888888 0 0  0.9444444444444444 0 0  1 0 0  0 0.01428571428571429 0  0.05555555555555555 0.01428571428571429 0  0.1111111111111111 0.01428571428571429 0  0.1666666666666667 0.01428571428571429 0  0.2222222222222222 0.01428571428571429 0  0.2777777777777778 0.01428571428571429 0  0.3333333333333333 0.01428571428571429 0  0.3888888888888889 0.01428571428571429 0  0.4444444444444444 0.01428571428571429 0  0.5 0.01428571428571429 0  0.5555555555555556 0.01428571428571429 0  0.6111111111111112 0.01428571428571429 0  0.6666666666666666 0.01428571428571429 0  0.7222222222222222 0.01428571428571429 0  0.7777777777777778 0.01428571428571429 0  0.8333333333333334 0.01428571428571429 0  0.8888888888888888 0.01428571428571429 0  0.9444444444444444 0.01428571428571429 0  1 0.01428571428571429 0  0 0.02857142857142857 0  0.05555555555555555 0.02857142857142857 0  0.1111111111111111 0.02857142857142857 0  0.1666666666666667 0.02857142857142857 0  0.2222222222222222 0.02857142857142857 0  0.2777777777777778 0.02857142857142857 0  0.3333333333333333 0.02857142857142857 0  0.3888888888888889 0.02857142857142857 0  0.4444444444444444 0.02857142857142857 0  0.5 0.02857142857142857 0  0.5555555555555556 0.02857142857142857 0  0.6111111111111112 0.02857142857142857 0  0.6666666666666666 0.02857142857142857 0  0.7222222222222222 0.02857142857142857 0  0.7777777777777778 0.02857142857142857 0  0.8333333333333334 0.02857142857142857 0  0.8888888888888888 0.02857142857142857 0  0.9444444444444444 0.02857142857142857 0  1 0.02857142857142857 0  0 0.04285714285714286 0  0.05555555555555555 0.04285714285714286 0  0.1111111111111111 0.04285714285714286 0  0.1666666666666667 0.04285714285714286 0  0.2222222222222222 0.04285714285714286 0  0.2777777777777778 0.04285714285714286 0  0.3333333333333333 0.04285714285714286 0  0.3888888888888889 0.04285714285714286 0  0.4444444444444444 0.04285714285714286 0  0.5 0.04285714285714286 0  0.5555555555555556 0.04285714285714286 0  0.6111111111111112 0.04285714285714286 0  0.6666666666666666 0.04285714285714286 0  0.7222222222222222 0.04285714285714286 0  0.7777777777777778 0.04285714285714286 0  0.8333333333333334 0.04285714285714286 0  0.8888888888888888 0.04285714285714286 0  0.9444444444444444 0.04285714285714286 0  1 0.04285714285714286 0  0 0.05714285714285715 0  0.05555555555555555 0.05714285714285715 0  0.1111111111111111 0.05714285714285715 0  0.1666666666666667 0.05714285714285715 0  0.2222222222222222 0.05714285714285715 0  0.2777777777777778 0.05714285714285715 0  0.3333333333333333 0.05714285714285715 0  0.3888888888888889 0.05714285714285715 0  0.4444444444444444 0.05714285714285715 0  0.5 0.05714285714285715 0  0.5555555555555556 0.05714285714285715 0  0.6111111111111112 0.05714285714285715 0  0.6666666666666666 0.05714285714285715 0  0.7222222222222222 0.05714285714285715 0  0.7777777777777778 0.05714285714285715 0  0.8333333333333334 0.05714285714285715 0  0.8888888888888888 0.05714285714285715 0  0.9444444444444444 0.05714285714285715 0  1 0.05714285714285715 0  0 0.07142857142857142 0  0.05555555555555555 0.07142857142857142 0  0.1111111111111111 0.07142857142857142 0  0.1666666666666667 0.07142857142857142 0  0.2222222222222222 0.07142857142857142 0  0.2777777777777778 0.07142857142857142 0  0.3333333333333333 0.07142857142857142 0  0.3888888888888889 0.07142857142857142 0  0.4444444444444444 0.07142857142857142 0  0.5 0.07142857142857142 0  0.5555555555555556 0.07142857142857142 0  0.6111111111111112 0.07142857142857142 0  0.6666666666666666 0.07142857142857142 0  0.7222222222222222 0.07142857142857142 0  0.7777777777777778 0.07142857142857142 0  0.8333333333333334 0.07142857142857142 0  0.8888888888888888 0.07142857142857142 0  0.9444444444444444 0.07142857142857142 0  1 0.07142857142857142 0  0 0.08571428571428573 0  0.05555555555555555 0.08571428571428573 0  0.1111111111111111 0.08571428571428573 0  0.1666666666666667 0.08571428571428573 0  0.2222222222222222 0.08571428571428573 0  0.2777777777777778 0.08571428571428573 0  0.3333333333333333 0.08571428571428573 0  0.3888888888888889 0.08571428571428573 0  0.4444444444444444 0.08571428571428573 0  0.5 0.08571428571428573 0  0.5555555555555556 0.08571428571428573 0  0.6111111111111112 0.08571428571428573 0  0.6666666666666666 0.08571428571428573 0  0.7222222222222222 0.08571428571428573 0  0.7777777777777778 0.08571428571428573 0  0.8333333333333334 0.08571428571428573 0  0.8888888888888888 0.08571428571428573 0  0.9444444444444444 0.08571428571428573 0  1 0.08571428571428573 0  0 0.1 0  0.05555555555555555 0.1 0  0.1111111111111111 0.1 0  0.1666666666666667 0.1 0  0.2222222222222222 0.1 0  0.2777777777777778 0.1 0  0.3333333333333333 0.1 0  0.3888888888888889 0.1 0  0.4444444444444444 0.1 0  0.5 0.1 0  0.5555555555555556 0.1 0  0.6111111111111112 0.1 0  0.6666666666666666 0.1 0  0.7222222222222222 0.1 0  0.7777777777777778 0.1 0  0.8333333333333334 0.1 0  0.8888888888888888 0.1 0  0.9444444444444444 0.1 0  1 0.1 0  0 0 0.01  0.05555555555555555 0 0.01  0.1111111111111111 0 0.01  0.1666666666666667 0 0.01  0.2222222222222222 0 0.01  0.2777777777777778 0 0.01  0.3333333333333333 0 0.01  0.3888888888888889 0 0.01  0.4444444444444444 0 0.01  0.5 0 0.01  0.5555555555555556 0 0.01  0.6111111111111112 0 0.01  0.6666666666666666 0 0.01  0.7222222222222222 0 0.01  0.7777777777777778 0 0.01  0.8333333333333334 0 0.01  0.8888888888888888 0 0.01  0.9444444444444444 0 0.01  1 0 0.01  0 0.01428571428571429 0.01  0.05555555555555555 0.01428571428571429 0.01  0.1111111111111111 0.01428571428571429 0.01  0.1666666666666667 0.01428571428571429 0.01  0.2222222222222222 0.01428571428571429 0.01  0.2777777777777778 0.01428571428571429 0.01  0.3333333333333333 0.01428571428571429 0.01  0.3888888888888889 0.01428571428571429 0.01  0.4444444444444444 0.01428571428571429 0.01  0.5 0.01428571428571429 0.01  0.5555555555555556 0.01428571428571429 0.01  0.6111111111111112 0.01428571428571429 0.01  0.6666666666666666 0.01428571428571429 0.01  0.7222222222222222 0.01428571428571429 0.01  0.7777777777777778 0.01428571428571429 0.01  0.8333333333333334 0.01428571428571429 0.01  0.8888888888888888 0.01428571428571429 0.01  0.9444444444444444 0.01428571428571429 0.01  1 0.01428571428571429 0.01  0 0.02857142857142857 0.01  0.05555555555555555 0.02857142857142857 0.01  0.1111111111111111 0.02857142857142857 0.01  0.1666666666666667 0.02857142857142857 0.01  0.2222222222222222 0.02857142857142857 0.01  0.2777777777777778 0.02857142857142857 0.01  0.3333333333333333 0.02857142857142857 0.01  0.3888888888888889 0.02857142857142857 0.01  0.4444444444444444 0.02857142857142857 0.01  0.5 0.02857142857142857 0.01  0.5555555555555556 0.02857142857142857 0.01  0.6111111111111112 0.02857142857142857 0.01  0.6666666666666666 0.02857142857142857 0.01  0.7222222222222222 0.02857142857142857 0.01  0.7777777777777778 0.02857142857142857 0.01  0.8333333333333334 0.02857142857142857 0.01  0.8888888888888888 0.02857142857142857 0.01  0.9444444444444444 0.02857142857142857 0.01  1 0.02857142857142857 0.01  0 0.04285714285714286 0.01  0.05555555555555555 0.04285714285714286 0.01  0.1111111111111111 0.04285714285714286 0.01  0.1666666666666667 0.04285714285714286 0.01  0.2222222222222222 0.04285714285714286 0.01  0.2777777777777778 0.04285714285714286 0.01  0.3333333333333333 0.04285714285714286 0.01  0.3888888888888889 0.04285714285714286 0.01  0.4444444444444444 0.04285714285714286 0.01  0.5 0.04285714285714286 0.01  0.5555555555555556 0.04285714285714286 0.01  0.6111111111111112 0.04285714285714286 0.01  0.6666666666666666 0.04285714285714286 0.01  0.7222222222222222 0.04285714285714286 0.01  0.7777777777777778 0.04285714285714286 0.01  0.8333333333333334 0.04285714285714286 0.01  0.8888888888888888 0.04285714285714286 0.01  0.9444444444444444 0.04285714285714286 0.01  1 0.04285714285714286 0.01  0 0.05714285714285715 0.01  0.05555555555555555 0.05714285714285715 0.01  0.1111111111111111 0.05714285714285715 0.01  0.1666666666666667 0.05714285714285715 0.01  0.2222222222222222 0.05714285714285715 0.01  0.2777777777777778 0.05714285714285715 0.01  0.3333333333333333 0.05714285714285715 0.01  0.3888888888888889 0.05714285714285715 0.01  0.4444444444444444 0.05714285714285715 0.01  0.5 0.05714285714285715 0.01  0.5555555555555556 0.05714285714285715 0.01  0.6111111111111112 0.05714285714285715 0.01  0.6666666666666666 0.05714285714285715 0.01  0.7222222222222222 0.05714285714285715 0.01  0.7777777777777778 0.05714285714285715 0.01  0.8333333333333334 0.05714285714285715 0.01  0.8888888888888888 0.05714285714285715 0.01  0.9444444444444444 0.05714285714285715 0.01  1 0.05714285714285715 0.01  0 0.07142857142857142 0.01  0.05555555555555555 0.07142857142857142 0.01  0.1111111111111111 0.07142857142857142 0.01  0.1666666666666667 0.07142857142857142 0.01  0.2222222222222222 0.07142857142857142 0.01  0.2777777777777778 0.07142857142857142 0.01  0.3333333333333333 0.07142857142857142 0.01  0.3888888888888889 0.07142857142857142 0.01  0.4444444444444444 0.07142857142857142 0.01  0.5 0.07142857142857142 0.01  0.5555555555555556 0.07142857142857142 0.01  0.6111111111111112 0.07142857142857142 0.01  0.6666666666666666 0.07142857142857142 0.01  0.7222222222222222 0.07142857142857142 0.01  0.7777777777777778 0.07142857142857142 0.01  0.8333333333333334 0.07142857142857142 0.01  0.8888888888888888 0.07142857142857142 0.01  
[...]
<PointData  Vectors="f_33"> 
<DataArray  type="Float64"  Name="f_33"  NumberOfComponents="3" format="ascii">0.0000000000000000e+00 0.0000000000000000e+00 0.0000000000000000e+00  3.3371943840673811e-03 2.3927181465110788e-04 4.7316209647336157e-03  6.2302728950834581e-03 -3.0009970932756842e-05 1.8119366531529707e-02  8.8696612134204888e-03 -4.6531026477825062e-04 3.9553494486634588e-02  1.1258453659429494e-02 -1.0138561000885603e-03 6.8264114227089764e-02  1.3400432608255594e-02 -1.6505509274226447e-03 1.0352193394824745e-01  1.5298983866907723e-02 -2.3601355754707433e-03 1.4461347755628767e-01  1.6959156263158231e-02 -3.1307981101587287e-03 1.9084017241062889e-01  1.8387976654260986e-02 -3.9521897573873256e-03 2.4152183883044712e-01  1.9594553695496779e-02 -4.8147859415093395e-03 2.9600172510793837e-01  2.0590189260037459e-02 -5.7097185946992203e-03 3.5365235038731363e-01  2.1388491487568703e-02 -6.6287800706345511e-03 4.1388187999776421e-01  2.2005474192885947e-02 -7.5644918085879418e-03 4.7614088551607847e-01  2.2459637363356929e-02 -8.5101985148758625e-03 5.3992939212603086e-01  2.2772028584689016e-02 -9.4601736575420335e-03 6.0480414024022033e-01  2.2966288583516830e-02 -1.0409732545670361e-02 6.7038600321776509e-01  2.3068699156065638e-02 -1.1355352818760560e-02 7.3636751778635690e-01  2.3108291656608774e-02 -1.2294788383733206e-02 8.0252057062630033e-01  2.3116777462375566e-02 -1.3227297595757928e-02 8.6870507290806864e-01  0.0000000000000000e+00 0.0000000000000000e+00 0.0000000000000000e+00  3.1713258731369222e-03 7.3425887734277807e-05 4.8699417626043998e-03  6.1181496620386147e-03 -1.7711606149018369e-04 1.8216686223103871e-02  8.8016687067049033e-03 -5.9843058057768917e-04 3.9552927370300396e-02  1.1231800105684215e-02 -1.1334073277201380e-03 6.8155524862862138e-02  1.3412140859185148e-02 -1.7567605556444070e-03 1.0330810255634969e-01  1.5346086541714281e-02 -2.4532762994096762e-03 1.4430150410055184e-01  1.7038682728071207e-02 -3.2112421034135290e-03 1.9043869737141284e-01  1.8496932257783011e-02 -4.0204205540881029e-03 2.4104005304390100e-01  1.9729914563938786e-02 -4.8714051784679475e-03 2.9544896866946402e-01  2.0748909983221691e-02 -5.7554524772112743e-03 3.5303792011332891e-01  2.1567519875673336e-02 -6.6644851128048778e-03 4.1321491049305203e-01  2.2201770090429680e-02 -7.5911594823738346e-03 4.7543025426556301e-01  2.2670194215403110e-02 -8.5289587058630448e-03 5.3918363034427519e-01  2.2993897071615914e-02 -9.4722967867728759e-03 6.0403134252176571e-01  2.3196600602015813e-02 -1.0416630022205511e-02 6.6959373172232628e-01  2.3304683808884095e-02 -1.1358575111876221e-02 7.3556269248209605e-01  2.3347296378524011e-02 -1.2296006068644255e-02 8.0170930852438804e-01  2.3356841292339000e-02 -1.3227918924515268e-02 8.6789230998005262e-01  0.0000000000000000e+00 0.0000000000000000e+00 0.0000000000000000e+00  3.1458008599492679e-03 -5.2914587286446832e-05 4.9233376362688239e-03  6.1073227918839830e-03 -3.2007247052025369e-04 1.8217090904894973e-02  8.8205374542154619e-03 -7.3643130719144401e-04 3.9459237215869400e-02  1.1281251590080843e-02 -1.2604423398704450e-03 6.7961879079366211e-02  1.3490482514817185e-02 -1.8708931931589584e-03 1.0301815019796924e-01  1.5450963633091610e-02 -2.5540491257389905e-03 1.4392242847642422e-01  1.7167551745478873e-02 -3.2987724765522492e-03 1.8997897238197747e-01  1.8647206473640800e-02 -4.0951027950652972e-03 2.4050857248644630e-01  1.9899022321082451e-02 -4.9338142037321083e-03 2.9485467628250839e-01  2.0934329014540488e-02 -5.8063139832390011e-03 3.5238962402720342e-01  2.1766804199808268e-02 -6.7046682700485317e-03 4.1252116425691354e-01  2.2412574858718805e-02 -7.6216769701728526e-03 4.7469926006942242e-01  2.2890300472827186e-02 -8.5509686133033343e-03 5.3842314795112900e-01  2.3221236972604857e-02 -9.4871040574320414e-03 6.0324859783863072e-01  2.3429281824315293e-02 -1.0425685717446263e-02 6.6879532214979265e-01  2.3541005380639395e-02 -1.1363472755053604e-02 7.3475448477249938e-01  2.3585742682705271e-02 -1.2298477475249045e-02 8.0089631258200999e-01  2.3596134315961987e-02 -1.3229654300042085e-02 8.6707841395891194e-01  0.0000000000000000e+00 0.0000000000000000e+00 0.0000000000000000e+00  3.1439402695610276e-03 -1.6109690701188636e-04 4.9061815693597025e-03  6.1199636825840543e-03 -4.5718749487524832e-04 1.8117662500600654e-02  8.8611294357222471e-03 -8.7577633268847062e-04 3.9264925728308760e-02  1.1350614653198417e-02 -1.3913407302398996e-03 6.7674082851097314e-02  1.3586706033094021e-02 -1.9895793287821274e-03 1.0264299195339797e-01  1.5571625724455215e-02 -2.6593562953247185e-03 1.4346779872430299e-01  1.7310125821399420e-02 -3.3905537557988468e-03 1.8945339733186922e-01  1.8809164254137062e-02 -4.1736580247175373e-03 2.3992071206554072e-01  2.0077877921570172e-02 -4.9996893234101969e-03 2.9421307731041818e-01  2.1127669029313775e-02 -5.8602325226321137e-03 3.5170257580209391e-01  2.1972313672472515e-02 -6.7475096504642446e-03 4.1179659207284708e-01  2.2628062234594581e-02 -7.6544712487831368e-03 4.7394463102436069e-01  2.3113722715443666e-02 -8.5748965119040524e-03 5.3764537940913548e-01  2.3450725200221876e-02 -9.5034977645370080e-03 6.0245396523097439e-01  2.3663166962826630e-02 -1.0436027644777992e-02 6.6798936523731911e-01  2.3777837287296932e-02 -1.1369391193089294e-02 7.3394191162685585e-01  2.3824275163841148e-02 -1.2301749744303810e-02 8.0008089011792360e-01  2.3835316857627954e-02 -1.3232222981409783e-02 8.6626272642583269e-01  0.0000000000000000e+00 0.0000000000000000e+00 0.0000000000000000e+00  3.1367053381922898e-03 -2.6559994892106248e-04 4.8241480874539576e-03  6.1345832802217129e-03 -5.9252785496856006e-04 1.7923217427147531e-02  8.9066181733927479e-03 -1.0161735477674134e-03 3.8970509609568618e-02  1.1425699020010021e-02 -1.5246660344872523e-03 6.7291032158952949e-02  1.3688636510505007e-02 -2.1111161063440452e-03 1.0218095823647148e-01  1.5697668251108778e-02 -2.7675081152381932e-03 1.4293582560281115e-01  1.7457637712445812e-02 -3.4849979334602979e-03 1.8886024437228455e-01  1.8975572698286383e-02 -4.2546275941946808e-03 2.3927487451917454e-01  2.0260681008901372e-02 -5.0677084304668460e-03 2.9352272916437200e-01  2.1324450360377240e-02 -5.9160218940076496e-03 3.5097549327493116e-01  2.2180762634896344e-02 -6.7919547488553000e-03 4.1104007004487542e-01  2.2845996964311867e-02 -7.6886131873726091e-03 4.7316539537415603e-01  2.3339114632163458e-02 -8.5999307382773702e-03 5.3684949642122037e-01  2.3681724672978018e-02 -9.5207745890720404e-03 6.0164674898223525e-01  2.3898130307126522e-02 -1.0447051313305183e-02 6.6717528434891948e-01  2.4015352188543077e-02 -1.1375815540826617e-02 7.3312449758549891e-01  2.4063153991745547e-02 -1.2305387043287777e-02 7.9926263801788433e-01  2.4074618687507023e-02 -1.3235209600729289e-02 8.6544492077029578e-01  0.0000000000000000e+00 0.0000000000000000e+00 0.0000000000000000e+00  3.1132769593822710e-03 -3.7868157810242115e-04 4.6743252831157236e-03  6.1406806280669352e-03 -7.3269353276928775e-04 1.7633207632554774e-02  8.9478199002366570e-03 -1.1600213373732051e-03 3.8575705887891838e-02  1.1498315106934205e-02 -1.6610054890555306e-03 6.6812122314391195e-02  1.3789012579516586e-02 -2.2354244101931179e-03 1.0163125792480564e-01  1.5822740785625539e-02 -2.8781836958545175e-03 1.4232567936837501e-01  1.7604621918821613e-02 -3.5816957834781185e-03 1.8819872130847182e-01  1.9141816508791185e-02 -4.3375700056331032e-03 2.3857033811257009e-01  2.0443623894617079e-02 -5.1374184670481497e-03 2.9278299319219281e-01  2.1521622015851376e-02 -5.9732252162901650e-03 3.5020782467153522e-01  2.2389796986946063e-02 -6.8375458305596657e-03 4.1025113311567218e-01  2.3064652706417409e-02 -7.7236454534603685e-03 4.7236117258039240e-01  2.3565298887076293e-02 -8.6256150558460670e-03 5.3603519940961253e-01  2.3913518439987565e-02 -9.5384800422765210e-03 6.0082672558831196e-01  2.4133816127394094e-02 -1.0458305355666758e-02 6.6635292496038845e-01  2.4253447416965980e-02 -1.1382300739540175e-02 7.3230214509494518e-01  2.4302423712653346e-02 -1.2308953932156941e-02 7.9844149765006245e-01  2.4314131452181535e-02 -1.3238149262561496e-02 8.6462497828111873e-01  0.0000000000000000e+00 0.0000000000000000e+00 0.0000000000000000e+00  3.0584849391689681e-03 -5.1090411891670728e-04 4.4427247514974419e-03  6.1208325882209482e-03 -8.8392864737337048e-04 1.7240016424990828e-02  8.9672123641461113e-03 -1.3103178503522056e-03 3.8076730383298542e-02  1.1551782441182658e-02 -1.8016637446413805e-03 6.6234891540803753e-02  1.3872542978027824e-02 -2.3630584251786053e-03 1.0099200515907250e-01  1.5933145175935592e-02 -2.9916055897094757e-03 1.4163582871001837e-01  1.7739025252039298e-02 -3.6807077827985661e-03 1.8746757814577958e-01  1.9297473865549024e-02 -4.4224504590026116e-03 2.3780610346419917e-01  2.0617868853765205e-02 -5.2087161468645782e-03 2.9199310198069200e-01  2.1711860580410358e-02 -6.0316824400836648e-03 3.4939901830762843e-01  2.2593519008822806e-02 -6.8840724447513145e-03 4.0942942820575701e-01  2.3279450984489743e-02 -7.7593119289798684e-03 4.7153178895528058e-01  2.3788892006677061e-02 -8.6516522068256791e-03 5.3520247226808448e-01  2.4143775731537424e-02 -9.5562805696321664e-03 5.9999401175695799e-01  2.4368784697517753e-02 -1.0469425501559508e-02 6.6552250782079136e-01  2.4491390452932662e-02 -1.1388459512011215e-02 7.3147514259882063e-01  2.4541866461221074e-02 -1.2312038745459617e-02 7.9761777961922031e-01  2.4553866520651172e-02 -1.3240580608067704e-02 8.6380319200100841e-01  0.0000000000000000e+00 0.0000000000000000e+00 0.0000000000000000e+00  2.9081432019905928e-03 -6.5380138996714470e-04 4.1227496401098837e-03  6.0033881684901846e-03 -1.0380753609756845e-03 1.6744518484485944e-02  8.8945092181329181e-03 -1.4590811898590270e-03 3.7478545194960328e-02  1.1520166609133712e-02 -1.9389866907870801e-03 6.5565498403617764e-02  1.3879117208025652e-02 -2.4869336935100105e-03 1.0026950994724702e-01  1.5975123413120330e-02 -3.1014039864994992e-03 1.4087232352035570e-01  1.7813553122389403e-02 -3.7764351015153580e-03 1.8667244655805565e-01  1.9401630765233883e-02 -4.5044455374770075e-03 2.3698732354809224e-01  2.0748689743610532e-02 -5.2775304417923561e-03 2.9115770791026196e-01  2.1866355009882859e-02 -6.0880358307544048e-03 3.4855322057010640e-01  2.2768689561028541e-02 -6.9288395761835609e-03 4.0857859873015195e-01  2.3472313057369978e-02 -7.7935199232400214e-03 4.7068039358380648e-01  2.3996495377360798e-02 -8.6764820906397918e-03 5.3435398314302851e-01  2.4363227844970557e-02 -9.5730695897664458e-03 5.9915081259300507e-01  2.4597276060418734e-02 -1.0479669885249560e-02 6.6468579719943477e-01  2.4726223863861779e-02 -1.1393821320264910e-02 7.3064483730132945e-01  2.4780564692589987e-02 -1.2314317485454099e-02 7.9679237850171580e-01  2.4793866925868348e-02 -1.3242212019048598e-02 8.6297997018153594e-01  0.0000000000000000e+00 0.0000000000000000e+00 0.0000000000000000e+00  1.5661636376765075e-03 1.1569319266052029e-04 4.5901586903143608e-03  2.9740379889620170e-03 -1.2273807999960406e-04 1.7988611693488622e-02  4.2525161672916732e-03 -4.8525234673394975e-04 3.9433452415971688e-02  5.4106603271428461e-03 -9.5527800276218680e-04 6.8155224811312878e-02  6.4504023410067455e-03 -1.5159948546250679e-03 1.0342428204674667e-01  7.3730453260002589e-03 -2.1548187206677310e-03 1.4452697979026891e-01  8.1808163287194462e-03 -2.8609049657867609e-03 1.9076461619466223e-01  8.8769762617307863e-03 -3.6242607727234662e-03 2.4145690354705962e-01  9.4658196768262724e-03 -4.4354671109207147e-03 2.9594698798421870e-01  9.9527058283891291e-03 -5.2856383949621746e-03 3.5360728500654914e-01  1.0344105151248553e-02 -6.1664710071553880e-03 4.1384585250031625e-01  1.0647644853025008e-02 -7.0703260955823650e-03 4.7611315060528414e-01  1.0872147353136666e-02 -7.9903266579085686e-03 5.3990908959415496e-01  1.1027660135558680e-02 -8.9204616076713344e-03 6.0479029214338431e-01  1.1125478454382731e-02 -9.8556945476521076e-03 6.7037751150228686e-01  1.1178169419624231e-02 -1.0792073452957199e-02 7.3636316058430762e-01  1.1199619682608701e-02 -1.1726808125155525e-02 8.0251898939011890e-01  1.1204839515621822e-02 -1.2658405894112346e-02 8.6870437675674506e-01  0.0000000000000000e+00 0.0000000000000000e+00 0.0000000000000000e+00  1.5205363131042208e-03 1.0446537883837476e-05 4.7149208776411664e-03  2.9840740184201566e-03 -2.0833325724132907e-04 1.8085325104590620e-02  4.2960385758150288e-03 -5.6301817394468698e-04 3.9433448597118434e-02  5.4846875388226031e-03 -1.0253516682232769e-03 6.8047481187921519e-02  6.5518849556638033e-03 -1.5784320840742797e-03 1.0321128479291586e-01  7.4991417567210070e-03 -2.2097289207356889e-03 1.4421573809822610e-01  8.3288086484103463e-03 -2.9084748430690207e-03 1.9036374353423874e-01  9.0442267086615277e-03 -3.6647493892658744e-03 2.4097558742652170e-01  9.6497619841563586e-03 -4.4692043089775780e-03 2.9539457509810579e-01  1.0150855305939892e-02 -5.3130263698992876e-03 3.5299308364823800e-01  1.0554077163234822e-02 -6.1879868708558661e-03 4.1317901175111993e-01  1.0867177193986704e-02 -7.0865243607097445e-03 4.7540256472943165e-01  1.1099124758767575e-02 -8.0018412610013863e-03 5.3916330863669548e-01  1.1260140167459990e-02 -8.9280073392845952e-03 6.0401743152923681e-01  1.1361717351588117e-02 -9.8600680007050901e-03 6.6958515646693384e-01  1.1416642818671082e-02 -1.0794154243674626e-02 7.3555825770578454e-01  1.1439050900618222e-02 -1.1727557968474763e-02 8.0170768364093414e-01  1.1444623705957528e-02 -1.2658676395111434e-02 8.6789176909204668e-01  0.0000000000000000e+00 0.0000000000000000e+00 0.0000000000000000e+00  1.5187545369704065e-03 -5.9821717528477900e-05 4.7644041457070088e-03  3.0062696364782544e-03 -2.8412011737925308e-04 1.8080691654622585e-02  4.3486764087946658e-03 -6.3552033528572072e-04 3.9337619619728662e-02  5.5657507125426520e-03 -1.0918255710490724e-03 6.7852732460139134e-02  6.6589585096136251e-03 -1.6380758107779171e-03 1.0292064669910016e-01  7.6296544677442639e-03 -2.2623668794080460e-03 1.4383617348407599e-01  8.4801841680799770e-03 -2.9541879131605234e-03 1.8990364768907234e-01  9.2139293032568181e-03 -3.7037481668724726e-03 2.4044382427327271e-01  9.8353202254747966e-03 -4.5017883562304900e-03 2.9480007540246833e-01  1.0349884423464699e-02 -5.3395719553624823e-03 3.5234464825429679e-01  1.0764302291128413e-02 -6.2089443431769444e-03 4.1248518852813626e-01  1.1086457581718381e-02 -7.1024186151853038e-03 4.7467155027272728e-01  1.1325478900427481e-02 -8.0132729285063084e-03 5.3840285661163267e-01  1.1491771672456160e-02 -8.9356536804258962e-03 6.0323476098179407e-01  1.1597040248430166e-02 -9.8646828781939130e-03 6.6878685708178176e-01  1.1654300404323218e-02 -1.0796568425057076e-02 7.3475018820302396e-01  1.1677925592778551e-02 -1.1728687381675939e-02 8.0089484706355751e-01  1.1683986910292193e-02 -1.2659435642049523e-02 8.6707808776974837e-01  0.0000000000000000e+00 0.0000000000000000e+00 0.0000000000000000e+00  1.5302458094210044e-03 -1.1783059833521349e-04 4.7445601537022004e-03  3.0393247988496305e-03 -3.5407582679790133e-04 1.7977717774341671e-02  4.4104639212491506e-03 -7.0592850198338637e-04 3.9140984212088184e-02  5.6550005127168615e-03 -1.1578530802848189e-03 6.7563426732407367e-02  6.7732865565341173e-03 -1.6978779319786169e-03 1.0254439276108190e-01  7.7664936309800097e-03 -2.3153886575005213e-03 1.4338067908160648e-01  8.6369811874225568e-03 -3.0003720613443652e-03 1.8937736393260909e-01  9.3881836928440508e-03 -3.7432532207151959e-03 2.3985538010567917e-01  1.0024605868088166e-02 -4.5348925074773158e-03 2.9415800299286310e-01  1.0551871501488204e-02 -5.3666411858723315e-03 3.5165722771484820e-01  1.0976780627678696e-02 -6.2304226275454568e-03 4.1176033730677175e-01  1.1307361042813645e-02 -7.1188257159400820e-03 4.7391672738977625e-01  1.1552910677645732e-02 -8.0252045778201001e-03 5.3762497051315683e-01  1.1724030272940838e-02 -8.9437820031930907e-03 6.0244007709021152e-01  1.1832645522426700e-02 -9.8697556513726321e-03 6.6798090397999954e-01  1.1892014583542802e-02 -1.0799408054282983e-02 7.3393766241764191e-01  1.1916753462368531e-02 -1.1730205385043808e-02 8.0007950762458779e-01  1.1923228987476409e-02 -1.2660664836286407e-02 8.6626253676268050e-01  0.0000000000000000e+00 0.0000000000000000e+00 0.0000000000000000e+00  1.5403154870269299e-03 -1.7386572023009864e-04 4.6621599645653225e-03  3.0744191789085010e-03 -4.2279176147953963e-04 1.7781372009106511e-02  4.4750174262286387e-03 -7.7669045106501099e-04 3.8844689167872190e-02  5.7472332863401790e-03 -1.2249860414357233e-03 6.7178912421361064e-02  6.8904848747222717e-03 -1.7590328026362814e-03 1.0208119667082229e-01  7.9059819495757022e-03 -2.3697746518538273e-03 1.4284774220154917e-01  8.7961697983182235e-03 -3.0478379582109770e-03 1.8878339562375071e-01  9.5645607087557535e-03 -3.7839227087819840e-03 2.3920885253949384e-01  1.0215744243663628e-02 -4.5690327398142791e-03 2.9346707799345600e-01  1.0755445978393344e-02 -5.3946169549787641e-03 3.5092967299091743e-01  1.1190589203391768e-02 -6.2526812297087429e-03 4.1100343992376054e-01  1.1529348709436768e-02 -7.1358927437954476e-03 4.7313720493335393e-01  1.1781194508686752e-02 -8.0376833834042791e-03 5.3682888003771889e-01  1.1956925450450337e-02 -8.9523539118068571e-03 6.0163272233364906e-01  1.2068692419579915e-02 -9.8751790660911720e-03 6.6716674201647197e-01  1.2130004916737604e-02 -1.0802516233812518e-02 7.3312021258779136e-01  1.2155732641780071e-02 -1.1731924365878482e-02 7.9926125766505596e-01  1.2162511743447169e-02 -1.2662143412177255e-02 8.6544477681375531e-01  0.0000000000000000e+00 0.0000000000000000e+00 0.0000000000000000e+00  1.5427927482017912e-03 -2.3567232983495192e-04 4.5154112590595694e-03  3.1053951871635758e-03 -4.9478457735126940e-04 1.7491671439964464e-02  4.5372071839206649e-03 -8.5009490469427384e-04 3.8449301793752985e-02  5.8378556396650669e-03 -1.2945109466475880e-03 6.6699332704721476e-02  7.0064738342420375e-03 -1.8223994162339674e-03 1.0153088036946650e-01  8.0445547144565085e-03 -2.4261734306878354e-03 1.4223704392450218e-01  8.9546914697996045e-03 -3.0970996222782496e-03 1.8812137850873581e-01  9.7404898661477609e-03 -3.8261643658267040e-03 2.3850387532086062e-01  1.0406628246273001e-02 -4.6045226104685019e-03 2.9272695145441280e-01  1.0958933806687325e-02 -5.4237254868490063e-03 3.5016166181273539e-01  1.1404451195896276e-02 -6.2758645280092274e-03 4.1021420624692811e-01  1.1751499575794199e-02 -7.1536878182445231e-03 4.7233272882802813e-01  1.2009718139893299e-02 -8.0507074695572150e-03 5.3601437040294475e-01  1.2190100890865968e-02 -8.9613048100036369e-03 6.0081252387643580e-01  1.2305021602506397e-02 -9.8808347271042134e-03 6.6634424150762450e-01  1.2368245258035546e-02 -1.0805731785415475e-02 7.3229774854649166e-01  1.2394912309783965e-02 -1.1733648858931026e-02 7.9844003596231705e-01  1.2401909631542397e-02 -1.2663623525861669e-02 8.6462478213167326e-01  0.0000000000000000e+00 0.0000000000000000e+00 0.0000000000000000e+00  1.5328858307610751e-03 -3.1253642159701395e-04 4.2918191432365308e-03  3.1255846500430336e-03 -5.7616414706332885e-04 1.7101975841005639e-02  4.5900362127334355e-03 -9.3017185030409247e-04 3.7952091923418863e-02  5.9200319257673873e-03 -1.3693034793137381e-03 6.6123202679158929e-02  7.1149041339417293e-03 -1.8902143628728928e-03 1.0089239509045199e-01  8.1764806445353694e-03 -2.4864170025453909e-03 1.4154775202150321e-01  9.1074743961512723e-03 -3.1496817311527378e-03 1.8739063551622454e-01  9.9115625351109925e-03 -3.8712383547388107e-03 2.3773990669094064e-01  1.0593498170058857e-02 -4.6423812199676995e-03 2.9193720837159975e-01  1.1159199226036160e-02 -5.4547624550677831e-03 3.4935290010553149e-01  1.1615821618220360e-02 -6.3005618138884424e-03 4.0939245738105762e-01  1.1971818864189399e-02 -7.1726123448922277e-03 4.7150322877038697e-01  1.2236989218717338e-02 -8.0645111199605986e-03 5.3518147208267242e-01  1.2422511601442410e-02 -8.97072