<?xml version="1.0"?>
<VTKFile type="UnstructuredGrid"  version="0.1"  >
<UnstructuredGrid>
<Piece  NumberOfPoints="760" NumberOfCells="3024">
<Points>
<DataArray  type="Float64"  NumberOfComponents="3"  format="ascii">0 0 0  0.05555555555555555 0 0  0.1111111111111111 0 0  0.1666666666666667 0 0  0.2222222222222222 0 0  0.2777777777777778 0 0  0.3333333333333333 0 0  0.3888888888888889 0 0  0.4444444444444444 0 0  0.5 0 0  0.5555555555555556 0 0  0.6111111111111112 0 0  0.6666666666666666 0 0  0.7222222222222222 0 0  0.7777777777777778 0 0  0.8333333333333334 0 0  0.8888888888888888 0 0  0.9444444444444444 0 0  1 0 0  0 0.01428571428571429 0  0.05555555555555555 0.01428571428571429 0  0.1111111111111111 0.01428571428571429 0  0.1666666666666667 0.01428571428571429 0  0.2222222222222222 0.01428571428571429 0  0.2777777777777778 0.01428571428571429 0  0.3333333333333333 0.01428571428571429 0  0.3888888888888889 0.01428571428571429 0  0.4444444444444444 0.01428571428571429 0  0.5 0.01428571428571429 0  0.5555555555555556 0.01428571428571429 0  0.6111111111111112 0.01428571428571429 0  0.6666666666666666 0.01428571428571429 0  0.7222222222222222 0.01428571428571429 0  0.7777777777777778 0.01428571428571429 0  0.8333333333333334 0.01428571428571429 0  0.8888888888888888 0.01428571428571429 0  0.9444444444444444 0.01428571428571429 0  1 0.01428571428571429 0  0 0.02857142857142857 0  0.05555555555555555 0.02857142857142857 0  0.1111111111111111 0.02857142857142857 0  0.1666666666666667 0.02857142857142857 0  0.2222222222222222 0.02857142857142857 0  0.2777777777777778 0.02857142857142857 0  0.3333333333333333 0.02857142857142857 0  0.3888888888888889 0.02857142857142857 0  0.4444444444444444 0.02857142857142857 0  0.5 0.02857142857142857 0  0.5555555555555556 0.02857142857142857 0  0.6111111111111112 0.02857142857142857 0  0.6666666666666666 0.02857142857142857 0  0.7222222222222222 0.02857142857142857 0  0.7777777777777778 0.02857142857142857 0  0.8333333333333334 0.02857142857142857 0  0.8888888888888888 0.02857142857142857 0  0.9444444444444444 0.02857142857142857 0  1 0.02857142857142857 0  0 0.04285714285714286 0  0.05555555555555555 0.04285714285714286 0  0.1111111111111111 0.04285714285714286 0  0.1666666666666667 0.04285714285714286 0  0.2222222222222222 0.04285714285714286 0  0.2777777777777778 0.04285714285714286 0  0.3333333333333333 0.04285714285714286 0  0.3888888888888889 0.04285714285714286 0  0.4444444444444444 0.04285714285714286 0  0.5 0.04285714285714286 0  0.5555555555555556 0.04285714285714286 0  0.6111111111111112 0.04285714285714286 0  0.6666666666666666 0.04285714285714286 0  0.7222222222222222 0.04285714285714286 0  0.7777777777777778 0.04285714285714286 0  0.8333333333333334 0.04285714285714286 0  0.8888888888888888 0.04285714285714286 0  0.9444444444444444 0.04285714285714286 0  1 0.04285714285714286 0  0 0.05714285714285715 0  0.05555555555555555 0.05714285714285715 0  0.1111111111111111 0.05714285714285715 0  0.1666666666666667 0.05714285714285715 0  0.2222222222222222 0.05714285714285715 0  0.2777777777777778 0.05714285714285715 0  0.3333333333333333 0.05714285714285715 0  0.3888888888888889 0.05714285714285715 0  0.4444444444444444 0.05714285714285715 0  0.5 0.05714285714285715 0  0.5555555555555556 0.05714285714285715 0  0.6111111111111112 0.05714285714285715 0  0.6666666666666666 0.05714285714285715 0  0.7222222222222222 0.05714285714285715 0  0.7777777777777778 0.05714285714285715 0  0.8333333333333334 0.05714285714285715 0  0.8888888888888888 0.05714285714285715 0  0.9444444444444444 0.05714285714285715 0  1 0.05714285714285715 0  0 0.07142857142857142 0  0.05555555555555555 0.07142857142857142 0  0.1111111111111111 0.07142857142857142 0  0.1666666666666667 0.07142857142857142 0  0.2222222222222222 0.07142857142857142 0  0.2777777777777778 0.07142857142857142 0  0.3333333333333333 0.07142857142857142 0  0.3888888888888889 0.07142857142857142 0  0.4444444444444444 0.07142857142857142 0  0.5 0.07142857142857142 0  0.5555555555555556 0.07142857142857142 0  0.6111111111111112 0.07142857142857142 0  0.6666666666666666 0.07142857142857142 0  0.7222222222222222 0.07142857142857142 0  0.7777777777777778 0.07142857142857142 0  0.8333333333333334 0.07142857142857142 0  0.8888888888888888 0.07142857142857142 0  0.9444444444444444 0.07142857142857142 0  1 0.07142857142857142 0  0 0.08571428571428573 0  0.05555555555555555 0.08571428571428573 0  0.1111111111111111 0.08571428571428573 0  0.1666666666666667 0.08571428571428573 0  0.2222222222222222 0.08571428571428573 0  0.2777777777777778 0.08571428571428573 0  0.3333333333333333 0.08571428571428573 0  0.3888888888888889 0.08571428571428573 0  0.4444444444444444 0.08571428571428573 0  0.5 0.08571428571428573 0  0.5555555555555556 0.08571428571428573 0  0.6111111111111112 0.08571428571428573 0  0.6666666666666666 0.08571428571428573 0  0.7222222222222222 0.08571428571428573 0  0.7777777777777778 0.08571428571428573 0  0.8333333333333334 0.08571428571428573 0  0.8888888888888888 0.08571428571428573 0  0.9444444444444444 0.08571428571428573 0  1 0.08571428571428573 0  0 0.1 0  0.05555555555555555 0.1 0  0.1111111111111111 0.1 0  0.1666666666666667 0.1 0  0.2222222222222222 0.1 0  0.2777777777777778 0.1 0  0.3333333333333333 0.1 0  0.3888888888888889 0.1 0  0.4444444444444444 0.1 0  0.5 0.1 0  0.5555555555555556 0.1 0  0.6111111111111112 0.1 0  0.6666666666666666 0.1 0  0.7222222222222222 0.1 0  0.7777777777777778 0.1 0  0.8333333333333334 0.1 0  0.8888888888888888 0.1 0  0.9444444444444444 0.1 0  1 0.1 0  0 0 0.01  0.05555555555555555 0 0.01  0.1111111111111111 0 0.01  0.1666666666666667 0 0.01  0.2222222222222222 0 0.01  0.2777777777777778 0 0.01  0.3333333333333333 0 0.01  0.3888888888888889 0 0.01  0.4444444444444444 0 0.01  0.5 0 0.01  0.5555555555555556 0 0.01  0.6111111111111112 0 0.01  0.6666666666666666 0 0.01  0.7222222222222222 0 0.01  0.7777777777777778 0 0.01  0.8333333333333334 0 0.01  0.8888888888888888 0 0.01  0.9444444444444444 0 0.01  1 0 0.01  0 0.01428571428571429 0.01  0.05555555555555555 0.01428571428571429 0.01  0.1111111111111111 0.01428571428571429 0.01  0.1666666666666667 0.01428571428571429 0.01  0.2222222222222222 0.01428571428571429 0.01  0.2777777777777778 0.01428571428571429 0.01  0.3333333333333333 0.01428571428571429 0.01  0.3888888888888889 0.01428571428571429 0.01  0.4444444444444444 0.01428571428571429 0.01  0.5 0.01428571428571429 0.01  0.5555555555555556 0.01428571428571429 0.01  0.6111111111111112 0.01428571428571429 0.01  0.6666666666666666 0.01428571428571429 0.01  0.7222222222222222 0.01428571428571429 0.01  0.7777777777777778 0.01428571428571429 0.01  0.8333333333333334 0.01428571428571429 0.01  0.8888888888888888 0.01428571428571429 0.01  0.9444444444444444 0.01428571428571429 0.01  1 0.01428571428571429 0.01  0 0.02857142857142857 0.01  0.05555555555555555 0.02857142857142857 0.01  0.1111111111111111 0.02857142857142857 0.01  0.1666666666666667 0.02857142857142857 0.01  0.2222222222222222 0.02857142857142857 0.01  0.2777777777777778 0.02857142857142857 0.01  0.3333333333333333 0.02857142857142857 0.01  0.3888888888888889 0.02857142857142857 0.01  0.4444444444444444 0.02857142857142857 0.01  0.5 0.02857142857142857 0.01  0.5555555555555556 0.02857142857142857 0.01  0.6111111111111112 0.02857142857142857 0.01  0.6666666666666666 0.02857142857142857 0.01  0.7222222222222222 0.02857142857142857 0.01  0.7777777777777778 0.02857142857142857 0.01  0.8333333333333334 0.02857142857142857 0.01  0.8888888888888888 0.02857142857142857 0.01  0.9444444444444444 0.02857142857142857 0.01  1 0.02857142857142857 0.01  0 0.04285714285714286 0.01  0.05555555555555555 0.04285714285714286 0.01  0.1111111111111111 0.04285714285714286 0.01  0.1666666666666667 0.04285714285714286 0.01  0.2222222222222222 0.04285714285714286 0.01  0.2777777777777778 0.04285714285714286 0.01  0.3333333333333333 0.04285714285714286 0.01  0.3888888888888889 0.04285714285714286 0.01  0.4444444444444444 0.04285714285714286 0.01  0.5 0.04285714285714286 0.01  0.5555555555555556 0.04285714285714286 0.01  0.6111111111111112 0.04285714285714286 0.01  0.6666666666666666 0.04285714285714286 0.01  0.7222222222222222 0.04285714285714286 0.01  0.7777777777777778 0.04285714285714286 0.01  0.8333333333333334 0.04285714285714286 0.01  0.8888888888888888 0.04285714285714286 0.01  0.9444444444444444 0.04285714285714286 0.01  1 0.04285714285714286 0.01  0 0.05714285714285715 0.01  0.05555555555555555 0.05714285714285715 0.01  0.1111111111111111 0.05714285714285715 0.01  0.1666666666666667 0.05714285714285715 0.01  0.2222222222222222 0.05714285714285715 0.01  0.2777777777777778 0.05714285714285715 0.01  0.3333333333333333 0.05714285714285715 0.01  0.3888888888888889 0.05714285714285715 0.01  0.4444444444444444 0.05714285714285715 0.01  0.5 0.05714285714285715 0.01  0.5555555555555556 0.05714285714285715 0.01  0.6111111111111112 0.05714285714285715 0.01  0.6666666666666666 0.05714285714285715 0.01  0.7222222222222222 0.05714285714285715 0.01  0.7777777777777778 0.05714285714285715 0.01  0.8333333333333334 0.05714285714285715 0.01  0.8888888888888888 0.05714285714285715 0.01  0.9444444444444444 0.05714285714285715 0.01  1 0.05714285714285715 0.01  0 0.07142857142857142 0.01  0.05555555555555555 0.07142857142857142 0.01  0.1111111111111111 0.07142857142857142 0.01  0.1666666666666667 0.07142857142857142 0.01  0.2222222222222222 0.07142857142857142 0.01  0.2777777777777778 0.07142857142857142 0.01  0.3333333333333333 0.07142857142857142 0.01  0.3888888888888889 0.07142857142857142 0.01  0.4444444444444444 0.07142857142857142 0.01  0.5 0.07142857142857142 0.01  0.5555555555555556 0.07142857142857142 0.01  0.6111111111111112 0.07142857142857142 0.01  0.6666666666666666 0.07142857142857142 0.01  0.7222222222222222 0.07142857142857142 0.01  0.7777777777777778 0.07142857142857142 0.01  0.8333333333333334 0.07142857142857142 0.01  0.8888888888888888 0.07142857142857142 0.01  
[...]
<PointData  Vectors="f_33"> 
<DataArray  type="Float64"  Name="f_33"  NumberOfComponents="3" format="ascii">0.0000000000000000e+00 0.0000000000000000e+00 0.0000000000000000e+00  -3.3300944736529537e-03 -2.4325930542382611e-04 -4.6731713275658844e-03  -6.2561598408770840e-03 2.1986058749888244e-05 -1.8041637457430985e-02  -8.9665976416271557e-03 4.5761953213605390e-04 -3.9605802054500885e-02  -1.1463142994536719e-02 1.0129290160661333e-03 -6.8705607287017689e-02  -1.3746896524745002e-02 1.6646804749704581e-03 -1.0471599797906667e-01  -1.5817064744741659e-02 2.3992626680226082e-03 -1.4701824573003183e-01  -1.7672862128869194e-02 3.2062231455599033e-03 -1.9499433676991157e-01  -1.9313842232617725e-02 4.0761760525905239e-03 -2.4802544660187162e-01  -2.0740231997835968e-02 5.0000492429752141e-03 -3.0549223796761010e-01  -2.1953504951991842e-02 5.9688213813188689e-03 -3.6677692948358087e-01  -2.2957175805060577e-02 6.9734714240478907e-03 -4.3126756237528124e-01  -2.3757758739636013e-02 8.0050515790526071e-03 -4.9836494385478058e-01  -2.4365814608392270e-02 9.0548563914669249e-03 -5.6749262639570686e-01  -2.4796999879561930e-02 1.0114678325114250e-02 -6.3811006485983168e-01  -2.5073030151379332e-02 1.1177143884842273e-02 -7.0972883077934279e-01  -2.5222505315490015e-02 1.2236123597555534e-02 -7.8193151216277990e-01  -2.5281638320761132e-02 1.3287190744992919e-02 -8.5439284892190415e-01  -2.5294513627283792e-02 1.4328306160078363e-02 -9.2690376240564953e-01  0.0000000000000000e+00 0.0000000000000000e+00 0.0000000000000000e+00  -3.1628345095873257e-03 -7.6079059682725235e-05 -4.8142723394589103e-03  -6.1405785604374680e-03 1.7255422482674183e-04 -1.8144226105699306e-02  -8.8936570477795209e-03 5.9620168315634094e-04 -3.9611912874219897e-02  -1.1430609449390285e-02 1.1398029701986457e-03 -6.8603593102406366e-02  -1.3752429367633495e-02 1.7798571922019116e-03 -1.0450694871041560e-01  -1.5858403074537963e-02 2.5027123969660120e-03 -1.4670749820158563e-01  -1.7747793352536657e-02 3.2979294165042900e-03 -1.9458877994585499e-01  -1.9420148826935470e-02 4.1561583265524882e-03 -2.4753262498862430e-01  -2.0875639727533750e-02 5.0683924967709088e-03 -3.0492005735376981e-01  -2.2115633244041848e-02 6.0257170679160572e-03 -3.6613357826363535e-01  -2.3143490294762033e-02 7.0192673767420811e-03 -4.3056150213142247e-01  -2.3965530349738910e-02 8.0403070555146502e-03 -4.9760490588094941e-01  -2.4592091699111342e-02 9.0803976488237556e-03 -5.6668758202572289e-01  -2.5038599872115111e-02 1.0131649549584313e-02 -6.3726915033088993e-01  -2.5326553612147674e-02 1.1187048172042389e-02 -7.0886121198348151e-01  -2.5484362921432323e-02 1.2240848931519183e-02 -7.8104616962020290e-01  -2.5548107194847514e-02 1.3288996011788802e-02 -8.5349821842801432e-01  -2.5562646012644828e-02 1.4329230976901058e-02 -9.2600696631122537e-01  0.0000000000000000e+00 0.0000000000000000e+00 0.0000000000000000e+00  -3.1371645841872667e-03 5.1544802661940128e-05 -4.8695449768770358e-03  -6.1291324254391872e-03 3.1879188555835117e-04 -1.8147733522184500e-02  -8.9117820218843034e-03 7.3951018140680058e-04 -3.9521390641613058e-02  -1.1479627183925215e-02 1.2740804133320636e-03 -6.8411723445330239e-02  -1.3831114207469746e-02 1.9029709607953774e-03 -1.0421582478587238e-01  -1.5964879054094681e-02 2.6139119724449588e-03 -1.4632273604509008e-01  -1.7879987054986096e-02 3.3969482224176072e-03 -1.9411735609509187e-01  -1.9575910852948950e-02 4.2429277965160802e-03 -2.4698209231842175e-01  -2.1052774708934258e-02 5.1429678522083716e-03 -3.0429826774707819e-01  -2.2311903930514427e-02 6.0882809024151554e-03 -3.6544858912136002e-01  -2.3356616036359683e-02 7.0701656857369705e-03 -4.2982153846252436e-01  -2.4193189731048548e-02 8.0800994824084971e-03 -4.9681832189081648e-01  -2.4831935501076791e-02 9.1099121335411898e-03 -5.6586279473518264e-01  -2.5288278183143185e-02 1.0152033880726150e-02 -6.3641453036085338e-01  -2.5583757028247868e-02 1.1199811029172158e-02 -7.0798492246404532e-01  -2.5746865923092926e-02 1.2247884308693283e-02 -7.8015594339906402e-01  -2.5813788970643660e-02 1.3292589297026468e-02 -8.5260104188246089e-01  -2.5829610079224023e-02 1.4331771256765222e-02 -9.2510848274596924e-01  0.0000000000000000e+00 0.0000000000000000e+00 0.0000000000000000e+00  -3.1352765264656716e-03 1.6104972309718225e-04 -4.8532672289385136e-03  -6.1416276387261043e-03 4.5916286368409987e-04 -1.8049116014733177e-02  -8.9524307685939115e-03 8.8414332978497341e-04 -3.9326501836745235e-02  -1.1549674651455838e-02 1.4122405886060666e-03 -6.8120543117839397e-02  -1.3929090037335229e-02 2.0307103256212273e-03 -1.0383305049486211e-01  -1.6088795595721246e-02 2.7297754310664449e-03 -1.4585489648711189e-01  -1.8027726643704459e-02 3.5004051988846213e-03 -1.9357175239697808e-01  -1.9745306450607090e-02 4.3338129664084978e-03 -2.4636637352419041e-01  -2.1241629238099462e-02 5.2213029944928688e-03 -3.0362026108082774e-01  -2.2517995725772236e-02 6.1542397036530912e-03 -3.6471622425843309e-01  -2.3577703843434807e-02 7.1240953183617306e-03 -4.2904279153376684e-01  -2.4427024169526662e-02 8.1225657644071903e-03 -4.9600114388277172e-01  -2.5076281617273734e-02 9.1417528719022496e-03 -5.6501500668570781e-01  -2.5540951922317211e-02 1.0174410660835560e-02 -6.3554367699712722e-01  -2.5842675883574771e-02 1.1214250531245423e-02 -7.0709808172315891e-01  -2.6010102840264820e-02 1.2256301732637434e-02 -7.7925949120567295e-01  -2.6079582290707434e-02 1.3297302183998837e-02 -8.5170035206565164e-01  -2.6096391052790394e-02 1.4335495949287036e-02 -9.2420737139657039e-01  0.0000000000000000e+00 0.0000000000000000e+00 0.0000000000000000e+00  -3.1278212288823330e-03 2.6686789139480135e-04 -4.7711142733733091e-03  -6.1559165983348383e-03 5.9774923779580547e-04 -1.7853187179331435e-02  -8.9978463893686401e-03 1.0298383056596724e-03 -3.9027771189417422e-02  -1.1625394725528128e-02 1.5528716301883372e-03 -6.7728948158786370e-02  -1.4032819215915688e-02 2.1613861744130694e-03 -1.0335694038762799e-01  -1.6218240014882219e-02 2.8486135329084919e-03 -1.4530215564289192e-01  -1.8180652817480755e-02 3.6066978057564566e-03 -1.9295018704327394e-01  -1.9919497345391828e-02 4.4273237673219607e-03 -2.4568379853092182e-01  -2.1434859921516610e-02 5.3020253680431968e-03 -3.0288450411218826e-01  -2.2728022995635901e-02 6.2223357181965680e-03 -3.6393509450343292e-01  -2.3802265806209342e-02 7.1799075266230483e-03 -4.2822401609338479e-01  -2.4663850744870198e-02 8.1666591586069971e-03 -4.9515226696062276e-01  -2.5323118321397543e-02 9.1749678085543736e-03 -5.6414324771708901e-01  -2.5795598933886135e-02 1.0197915618372716e-02 -6.3465574727694518e-01  -2.6103043723908023e-02 1.1229585197215800e-02 -7.0619996368790761e-01  -2.6274279154843407e-02 1.2265401042622973e-02 -7.7835618852642252e-01  -2.6345858009462632e-02 1.3302516235975474e-02 -8.5079559920862025e-01  -2.6363334191093369e-02 1.4339802544623689e-02 -9.2330318982270021e-01  0.0000000000000000e+00 0.0000000000000000e+00 0.0000000000000000e+00  -3.1038953220656204e-03 3.8118123295381566e-04 -4.6202095027642505e-03  -6.1612478072347676e-03 7.4114451479229105e-04 -1.7559409788129154e-02  -9.0384503879152086e-03 1.1790279895065722e-03 -3.8624913610347492e-02  -1.1698069490159018e-02 1.6966200532915812e-03 -6.7236319123688826e-02  -1.4134393425473544e-02 2.2949954207605468e-03 -1.0278667397675810e-01  -1.6346118100015024e-02 2.9701939005335339e-03 -1.4466363901329873e-01  -1.8332488110377635e-02 3.7155137937216857e-03 -1.9225180851837009e-01  -2.0093022789734863e-02 4.5231188105198383e-03 -2.4493357386750395e-01  -2.1627819080150254e-02 5.3847781463049280e-03 -3.0209027729674998e-01  -2.2938140674554845e-02 6.2921960061201277e-03 -3.6310456221151000e-01  -2.4027238156097797e-02 7.2372070705633345e-03 -4.2736466108777715e-01  -2.4901350433324181e-02 8.2119543664679918e-03 -4.9427122966214088e-01  -2.5570815226888522e-02 9.2090944044107611e-03 -5.6324714749603544e-01  -2.6051197796665999e-02 1.0222043961657479e-02 -6.3375046144803371e-01  -2.6364340840443021e-02 1.1245267367403158e-02 -7.0529037454423060e-01  -2.6539242385707974e-02 1.2274598952702442e-02 -7.7744591429373977e-01  -2.6612686859133372e-02 1.3307627822061631e-02 -8.4988671372006530e-01  -2.6630585324576718e-02 1.4344032326125800e-02 -9.2239593610665427e-01  0.0000000000000000e+00 0.0000000000000000e+00 0.0000000000000000e+00  -3.0483882852416593e-03 5.1446670563949301e-04 -4.3865836094095865e-03  -6.1400199769583441e-03 8.9558566353174210e-04 -1.7160094254873168e-02  -9.0562819882489230e-03 1.3347498102126770e-03 -3.8113999841552761e-02  -1.1750317808004028e-02 1.8448627765771039e-03 -6.6639995124908327e-02  -1.4217569174944922e-02 2.4321902582156575e-03 -1.0212012134885605e-01  -1.6457553074468580e-02 3.0948583536735837e-03 -1.4393753488738259e-01  -1.8469813644989518e-02 3.8270495818952385e-03 -1.9147506106518053e-01  -2.0253961020805549e-02 4.6213096977319275e-03 -2.4411438301114846e-01  -2.1810099323530351e-02 5.4696065930810193e-03 -3.0123650125527252e-01  -2.3139458856933116e-02 6.3638010444209622e-03 -3.6222378696579682e-01  -2.4245236125269857e-02 7.2959046706050894e-03 -4.2646412598473182e-01  -2.5133610420577136e-02 8.2582855998222602e-03 -4.9335766836293937e-01  -2.5814870260975377e-02 9.2438844074692883e-03 -5.6232656999424147e-01  -2.6304560160314690e-02 1.0246461524735559e-02 -6.3282789306561560e-01  -2.6624550873392886e-02 1.1260877824307423e-02 -7.0436956717459964e-01  -2.6803951198679666e-02 1.2283400630956745e-02 -7.7652905077539192e-01  -2.6879766800156996e-02 1.3312072487123549e-02 -8.4897413461693871e-01  -2.6898180871446485e-02 1.4347538761613392e-02 -9.2148604530556544e-01  0.0000000000000000e+00 0.0000000000000000e+00 0.0000000000000000e+00  -2.8974222001434558e-03 6.5817769037119643e-04 -4.0633740490976225e-03  -6.0199733426672866e-03 1.0527216017395373e-03 -1.6655844284743773e-02  -8.9794192677467837e-03 1.4887122705411434e-03 -3.7499752394994111e-02  -1.1713539155814060e-02 1.9895232966062066e-03 -6.5945955607949372e-02  -1.4218583484729245e-02 2.5653614859211210e-03 -1.0136348886458570e-01  -1.6494243543389166e-02 3.2156267321930298e-03 -1.4312987578509723e-01  -1.8540048484665735e-02 3.9350326688673033e-03 -1.9062565391577996e-01  -2.0355568389062079e-02 4.7163627611926870e-03 -2.4323155764618071e-01  -2.1940847441858903e-02 5.5517225495429886e-03 -3.0032811065704434e-01  -2.3297022212650374e-02 6.4330997797751501e-03 -3.6129729804215754e-01  -2.4427155111264687e-02 7.3526650706315262e-03 -4.2552652795819823e-01  -2.5337253113950783e-02 8.3029980863220682e-03 -4.9241527957514469e-01  -2.6037404286674851e-02 9.2773117638903762e-03 -5.6138477989137880e-01  -2.6542941639196217e-02 1.0269699839564002e-02 -6.3189086185390553e-01  -2.6875536467530263e-02 1.1275411961035922e-02 -7.0343990225631137e-01  -2.7064138320836730e-02 1.2291154839144830e-02 -7.7560748038377325e-01  -2.7145770462221684e-02 1.3315393242629861e-02 -8.4805914956183670e-01  -2.7166228327309007e-02 1.4349915672405712e-02 -9.2057410160651354e-01  0.0000000000000000e+00 0.0000000000000000e+00 0.0000000000000000e+00  -1.5628686120612110e-03 -1.1740863554353990e-04 -4.5317861643431072e-03  -2.9849826455184279e-03 1.1903132305503291e-04 -1.7909196979130741e-02  -4.2960159457630809e-03 4.8318244839230074e-04 -3.9482328053796596e-02  -5.5043633748851090e-03 9.6018114788125612e-04 -6.8591602751914199e-02  -6.6106900723042015e-03 1.5349399023058246e-03 -1.0461167436506950e-01  -7.6143311240233708e-03 2.1964605247863965e-03 -1.4692371770976703e-01  -8.5147621036682410e-03 2.9352534416080306e-03 -1.9490966720063987e-01  -9.3117132150613603e-03 3.7423513101540445e-03 -2.4795066595821613e-01  -1.0005274765830147e-02 4.6089287316571203e-03 -3.0542733864404475e-01  -1.0596142554850087e-02 5.5261736225170237e-03 -3.6672184208426595e-01  -1.1085982387350425e-02 6.4852797838162212e-03 -4.3122211964960178e-01  -1.1477878262715688e-02 7.4775222018224020e-03 -4.9832883645112996e-01  -1.1776826007934900e-02 8.4944067335588520e-03 -5.6746535441690049e-01  -1.1990230475330713e-02 9.5278924759264923e-03 -6.3809088932576441e-01  -1.2128365386698781e-02 1.0570683692568481e-02 -7.0971672876192615e-01  -1.2204769621373414e-02 1.1616580365796044e-02 -7.8192513606213221e-01  -1.2236589717101906e-02 1.2660832549551889e-02 -8.5439047900881626e-01  -1.2244459334908116e-02 1.3700619801751116e-02 -9.2690269816244264e-01  0.0000000000000000e+00 0.0000000000000000e+00 0.0000000000000000e+00  -1.5167202583168365e-03 -1.1708118149313150e-05 -4.6595234731035993e-03  -2.9940417289713345e-03 2.0639658221679392e-04 -1.8011313740233983e-02  -4.3387641380326558e-03 5.6387770995782317e-04 -3.9489150770820436e-02  -5.5782894036979294e-03 1.0342722631108020e-03 -6.8490598295838867e-02  -6.7132294997116525e-03 1.6023671921723032e-03 -1.0440363468734563e-01  -7.7431223611851936e-03 2.2571687488076443e-03 -1.4661388191009911e-01  -8.6675406155434561e-03 2.9892142288274501e-03 -1.9450488866083987e-01  -9.4862411654549686e-03 3.7895633126941992e-03 -2.4745847664207773e-01  -1.0199301818643860e-02 4.6494280304043203e-03 -3.0485564204494547e-01  -1.0807385411525866e-02 5.5600540569460651e-03 -3.6607883049393158e-01  -1.1312117274580469e-02 6.5127200691258999e-03 -4.3051626382372610e-01  -1.1716546537195123e-02 7.4988169290485475e-03 -4.9756888227643553e-01  -1.2025655166886700e-02 8.5099983897219469e-03 -5.6666029362954062e-01  -1.2246872616694160e-02 9.5384015632608461e-03 -6.3724988474571476e-01  -1.2390552489805929e-02 1.0576934425835474e-02 -7.0884897961999938e-01  -1.2470378106519865e-02 1.1619620701067526e-02 -7.8103966512730971e-01  -1.2503730815319218e-02 1.2661942854406446e-02 -8.5349577120446130e-01  -1.2512172725879697e-02 1.3701019643089436e-02 -9.2600613151284639e-01  0.0000000000000000e+00 0.0000000000000000e+00 0.0000000000000000e+00  -1.5148152383126804e-03 5.9123776374228513e-05 -4.7109050186897932e-03  -3.0160668595031084e-03 2.8385048903352579e-04 -1.8009781178575820e-02  -4.3915972357005603e-03 6.3911756263417712e-04 -3.9396450847524994e-02  -5.6603541193058268e-03 1.1045013710610080e-03 -6.8297562148625618e-02  -6.8225522888698872e-03 1.6666815177012345e-03 -1.0411174138111275e-01  -7.8775606945314571e-03 2.3152405891121684e-03 -1.4622852979895631e-01  -8.8249130562019478e-03 3.0409244073673694e-03 -1.9403297876923720e-01  -9.6643494718218689e-03 3.8348802451351857e-03 -2.4690753628713363e-01  -1.0395929323569820e-02 4.6883783584653112e-03 -3.0423351589615888e-01  -1.1020295258780760e-02 5.5927277832319858e-03 -3.6539357568080111e-01  -1.1539056529975141e-02 6.5392906240840194e-03 -4.2977610745347056e-01  -1.1955260096104351e-02 7.5195680188148767e-03 -4.9678218078101688e-01  -1.2273912687243890e-02 8.5253529862865472e-03 -5.6583546492976255e-01  -1.2502510426646822e-02 9.5489493511929213e-03 -6.3639529783954774e-01  -1.2651529355205134e-02 1.0583454294148434e-02 -7.0797279246909361e-01  -1.2734835386409123e-02 1.1623097569501833e-02 -7.8014960171754621e-01  -1.2770049402141206e-02 1.2663587110337908e-02 -8.5259880663539223e-01  -1.2779242217219067e-02 1.3702128894996043e-02 -9.2510794978222810e-01  0.0000000000000000e+00 0.0000000000000000e+00 0.0000000000000000e+00  -1.5263002962370943e-03 1.1775346464699164e-04 -4.6919412148235511e-03  -3.0492595824833922e-03 3.5544638306715990e-04 -1.7907607727537279e-02  -4.4540307392758154e-03 7.1220282951346854e-04 -3.9199195365237673e-02  -5.7511896568107120e-03 1.1742056144610662e-03 -6.8004802441317000e-02  -6.9398312840057387e-03 1.7310674008866730e-03 -1.0372777828308036e-01  -8.0191202552855508e-03 2.3736069562053800e-03 -1.4575971232843860e-01  -8.9885630253300330e-03 3.0930191610224760e-03 -1.9348653648527439e-01  -9.8478890485535400e-03 3.8806254431313354e-03 -2.4629109190465509e-01  -1.0597145589718995e-02 4.7277855032393963e-03 -3.0355488795963503e-01  -1.1236964156877438e-02 5.6258829331684457e-03 -3.6466069178576199e-01  -1.1768950934200556e-02 6.5663666580443114e-03 -4.2899694365595936e-01  -1.2196168134798506e-02 7.5408481206700731e-03 -4.9596468773502661e-01  -1.2523668997527711e-02 8.5412579783452867e-03 -5.6498746163918168e-01  -1.2759041904395960e-02 9.5600640843186719e-03 -6.3552432414977111e-01  -1.2912914827983761e-02 1.0590548659330712e-02 -7.0708591763736439e-01  -1.2999370491456301e-02 1.1627140482520804e-02 -7.7925318954652956e-01  -1.3036288338249900e-02 1.2665772504973796e-02 -8.5169822057729672e-01  -1.3046119626593735e-02 1.3703908437887841e-02 -9.2420702518347531e-01  0.0000000000000000e+00 0.0000000000000000e+00 0.0000000000000000e+00  -1.5363141700186021e-03 1.7442288585651833e-04 -4.6094160602516447e-03  -3.0844552341880139e-03 4.2580818348117048e-04 -1.7709762603143074e-02  -4.5192280409220593e-03 7.8565533015488630e-04 -3.8898547143223813e-02  -5.8450481727799044e-03 1.2450448026664048e-03 -6.7611681969058299e-02  -7.0600672469706919e-03 1.7968554636464016e-03 -1.0325042299889392e-01  -8.1634621298952541e-03 2.4334081392203767e-03 -1.4520590651699403e-01  -9.1547810090231753e-03 3.1464867733070768e-03 -1.9286403916597750e-01  -1.0033765070496407e-02 3.9276446687750433e-03 -2.4560769875096242e-01  -1.0800457288459190e-02 4.7683536148277013e-03 -3.0281841936633475e-01  -1.1455481073047249e-02 5.6600805717883671e-03 -3.6387895419792987e-01  -1.2000441201392896e-02 6.5943649619188242e-03 -4.2817766263472373e-01  -1.2438416935781816e-02 7.5629305440540161e-03 -4.9511540543063309e-01  -1.2774510688408071e-02 8.5578473868668809e-03 -5.6411539379607967e-01  -1.3016407098295395e-02 9.5717495375209644e-03 -6.3463617585494936e-01  -1.3174892955931971e-02 1.0598106827277493e-02 -7.0618766181525039e-01  -1.3264283495902857e-02 1.1631548122416364e-02 -7.7834981740362363e-01  -1.3302736876418551e-02 1.2668236266505845e-02 -8.5079345878234758e-01  -1.3313050647086384e-02 1.3706039900558695e-02 -9.2330290019964145e-01  0.0000000000000000e+00 0.0000000000000000e+00 0.0000000000000000e+00  -1.5386252443337614e-03 2.3681656668415318e-04 -4.4615882266948624e-03  -3.1153303834526801e-03 4.9944751858223464e-04 -1.7416300108599528e-02  -4.5818091270792049e-03 8.6179393185198524e-04 -3.8495107184497258e-02  -5.9370097499983421e-03 1.3183632535925479e-03 -6.7118375742182726e-02  -7.1787870405875774e-03 1.8649858518607785e-03 -1.0267952398165471e-01  -8.3065746863098464e-03 2.4953941412212150e-03 -1.4456681169348304e-01  -9.3200258482752565e-03 3.2019594406653726e-03 -1.9216513086057438e-01  -1.0218909950318104e-02 3.9764756183676246e-03 -2.4485698825520058e-01  -1.1003269242522616e-02 4.8105314121687243e-03 -3.0202374845157742e-01  -1.1673716914618453e-02 5.6956793044179487e-03 -3.6304801865482222e-01  -1.2231850781014849e-02 6.6235506641729195e-03 -4.2731794502065529e-01  -1.2680759261127413e-02 7.5859835512758992e-03 -4.9423404622213046e-01  -1.3025584449695636e-02 8.5751906524943466e-03 -5.6321901235119987e-01  -1.3274096841566330e-02 9.5839771254402368e-03 -6.3373064913297950e-01  -1.3437232275159684e-02 1.0606007610252934e-02 -7.0527787100777051e-01  -1.3529538523380435e-02 1.1636118691278693e-02 -7.7743937837253740e-01  -1.3569473753656906e-02 1.2670709733376187e-02 -8.4988445036581917e-01  -1.3580154021391917e-02 1.3708171560189469e-02 -9.2239556526250299e-01  0.0000000000000000e+00 0.0000000000000000e+00 0.0000000000000000e+00  -1.5284971422227863e-03 3.1417475280607715e-04 -4.2360269064495477e-03  -3.1351755183778897e-03 5.8251473752802456e-04 -1.7020582857606232e-02  -4.6346307231524744e-03 9.4474952139588896e-04 -3.7986094193473957e-02  -6.0199853056058933e-03 1.3971883064703078e-03 -6.6523309472082792e-02  -7.2892826338103100e-03 1.9378906804324728e-03 -1.0201391039057525e-01  -8.4422712085531499e-03 2.5616295258321740e-03 -1.4384144479102634e-01  -9.4786884618997085e-03 3.2612231206978239e-03 -1.9138896039801456e-01  -1.0398316700676976e-02 4.0286579082564741e-03 -2.4403822932014793e-01  -1.1201188265164752e-02 4.8556228328648556e-03 -3.0117026618087672e-01  -1.1887897157163436e-02 5.7337505983276775e-03