<?xml version="1.0"?>
<VTKFile type="UnstructuredGrid"  version="0.1"  >
<UnstructuredGrid>
<Piece  NumberOfPoints="760" NumberOfCells="3024">
<Points>
<DataArray  type="Float64"  NumberOfComponents="3"  format="ascii">0 0 0  0.05555555555555555 0 0  0.1111111111111111 0 0  0.1666666666666667 0 0  0.2222222222222222 0 0  0.2777777777777778 0 0  0.3333333333333333 0 0  0.3888888888888889 0 0  0.4444444444444444 0 0  0.5 0 0  0.5555555555555556 0 0  0.6111111111111112 0 0  0.6666666666666666 0 0  0.7222222222222222 0 0  0.7777777777777778 0 0  0.8333333333333334 0 0  0.8888888888888888 0 0  0.9444444444444444 0 0  1 0 0  0 0.01428571428571429 0  0.05555555555555555 0.01428571428571429 0  0.1111111111111111 0.01428571428571429 0  0.1666666666666667 0.01428571428571429 0  0.2222222222222222 0.01428571428571429 0  0.2777777777777778 0.01428571428571429 0  0.3333333333333333 0.01428571428571429 0  0.3888888888888889 0.01428571428571429 0  0.4444444444444444 0.01428571428571429 0  0.5 0.01428571428571429 0  0.5555555555555556 0.01428571428571429 0  0.6111111111111112 0.01428571428571429 0  0.6666666666666666 0.01428571428571429 0  0.7222222222222222 0.01428571428571429 0  0.7777777777777778 0.01428571428571429 0  0.8333333333333334 0.01428571428571429 0  0.8888888888888888 0.01428571428571429 0  0.9444444444444444 0.01428571428571429 0  1 0.01428571428571429 0  0 0.02857142857142857 0  0.05555555555555555 0.02857142857142857 0  0.1111111111111111 0.02857142857142857 0  0.1666666666666667 0.02857142857142857 0  0.2222222222222222 0.02857142857142857 0  0.2777777777777778 0.02857142857142857 0  0.3333333333333333 0.02857142857142857 0  0.3888888888888889 0.02857142857142857 0  0.4444444444444444 0.02857142857142857 0  0.5 0.02857142857142857 0  0.5555555555555556 0.02857142857142857 0  0.6111111111111112 0.02857142857142857 0  0.6666666666666666 0.02857142857142857 0  0.7222222222222222 0.02857142857142857 0  0.7777777777777778 0.02857142857142857 0  0.8333333333333334 0.02857142857142857 0  0.8888888888888888 0.02857142857142857 0  0.9444444444444444 0.02857142857142857 0  1 0.02857142857142857 0  0 0.04285714285714286 0  0.05555555555555555 0.04285714285714286 0  0.1111111111111111 0.04285714285714286 0  0.1666666666666667 0.04285714285714286 0  0.2222222222222222 0.04285714285714286 0  0.2777777777777778 0.04285714285714286 0  0.3333333333333333 0.04285714285714286 0  0.3888888888888889 0.04285714285714286 0  0.4444444444444444 0.04285714285714286 0  0.5 0.04285714285714286 0  0.5555555555555556 0.04285714285714286 0  0.6111111111111112 0.04285714285714286 0  0.6666666666666666 0.04285714285714286 0  0.7222222222222222 0.04285714285714286 0  0.7777777777777778 0.04285714285714286 0  0.8333333333333334 0.04285714285714286 0  0.8888888888888888 0.04285714285714286 0  0.9444444444444444 0.04285714285714286 0  1 0.04285714285714286 0  0 0.05714285714285715 0  0.05555555555555555 0.05714285714285715 0  0.1111111111111111 0.05714285714285715 0  0.1666666666666667 0.05714285714285715 0  0.2222222222222222 0.05714285714285715 0  0.2777777777777778 0.05714285714285715 0  0.3333333333333333 0.05714285714285715 0  0.3888888888888889 0.05714285714285715 0  0.4444444444444444 0.05714285714285715 0  0.5 0.05714285714285715 0  0.5555555555555556 0.05714285714285715 0  0.6111111111111112 0.05714285714285715 0  0.6666666666666666 0.05714285714285715 0  0.7222222222222222 0.05714285714285715 0  0.7777777777777778 0.05714285714285715 0  0.8333333333333334 0.05714285714285715 0  0.8888888888888888 0.05714285714285715 0  0.9444444444444444 0.05714285714285715 0  1 0.05714285714285715 0  0 0.07142857142857142 0  0.05555555555555555 0.07142857142857142 0  0.1111111111111111 0.07142857142857142 0  0.1666666666666667 0.07142857142857142 0  0.2222222222222222 0.07142857142857142 0  0.2777777777777778 0.07142857142857142 0  0.3333333333333333 0.07142857142857142 0  0.3888888888888889 0.07142857142857142 0  0.4444444444444444 0.07142857142857142 0  0.5 0.07142857142857142 0  0.5555555555555556 0.07142857142857142 0  0.6111111111111112 0.07142857142857142 0  0.6666666666666666 0.07142857142857142 0  0.7222222222222222 0.07142857142857142 0  0.7777777777777778 0.07142857142857142 0  0.8333333333333334 0.07142857142857142 0  0.8888888888888888 0.07142857142857142 0  0.9444444444444444 0.07142857142857142 0  1 0.07142857142857142 0  0 0.08571428571428573 0  0.05555555555555555 0.08571428571428573 0  0.1111111111111111 0.08571428571428573 0  0.1666666666666667 0.08571428571428573 0  0.2222222222222222 0.08571428571428573 0  0.2777777777777778 0.08571428571428573 0  0.3333333333333333 0.08571428571428573 0  0.3888888888888889 0.08571428571428573 0  0.4444444444444444 0.08571428571428573 0  0.5 0.08571428571428573 0  0.5555555555555556 0.08571428571428573 0  0.6111111111111112 0.08571428571428573 0  0.6666666666666666 0.08571428571428573 0  0.7222222222222222 0.08571428571428573 0  0.7777777777777778 0.08571428571428573 0  0.8333333333333334 0.08571428571428573 0  0.8888888888888888 0.08571428571428573 0  0.9444444444444444 0.08571428571428573 0  1 0.08571428571428573 0  0 0.1 0  0.05555555555555555 0.1 0  0.1111111111111111 0.1 0  0.1666666666666667 0.1 0  0.2222222222222222 0.1 0  0.2777777777777778 0.1 0  0.3333333333333333 0.1 0  0.3888888888888889 0.1 0  0.4444444444444444 0.1 0  0.5 0.1 0  0.5555555555555556 0.1 0  0.6111111111111112 0.1 0  0.6666666666666666 0.1 0  0.7222222222222222 0.1 0  0.7777777777777778 0.1 0  0.8333333333333334 0.1 0  0.8888888888888888 0.1 0  0.9444444444444444 0.1 0  1 0.1 0  0 0 0.01  0.05555555555555555 0 0.01  0.1111111111111111 0 0.01  0.1666666666666667 0 0.01  0.2222222222222222 0 0.01  0.2777777777777778 0 0.01  0.3333333333333333 0 0.01  0.3888888888888889 0 0.01  0.4444444444444444 0 0.01  0.5 0 0.01  0.5555555555555556 0 0.01  0.6111111111111112 0 0.01  0.6666666666666666 0 0.01  0.7222222222222222 0 0.01  0.7777777777777778 0 0.01  0.8333333333333334 0 0.01  0.8888888888888888 0 0.01  0.9444444444444444 0 0.01  1 0 0.01  0 0.01428571428571429 0.01  0.05555555555555555 0.01428571428571429 0.01  0.1111111111111111 0.01428571428571429 0.01  0.1666666666666667 0.01428571428571429 0.01  0.2222222222222222 0.01428571428571429 0.01  0.2777777777777778 0.01428571428571429 0.01  0.3333333333333333 0.01428571428571429 0.01  0.3888888888888889 0.01428571428571429 0.01  0.4444444444444444 0.01428571428571429 0.01  0.5 0.01428571428571429 0.01  0.5555555555555556 0.01428571428571429 0.01  0.6111111111111112 0.01428571428571429 0.01  0.6666666666666666 0.01428571428571429 0.01  0.7222222222222222 0.01428571428571429 0.01  0.7777777777777778 0.01428571428571429 0.01  0.8333333333333334 0.01428571428571429 0.01  0.8888888888888888 0.01428571428571429 0.01  0.9444444444444444 0.01428571428571429 0.01  1 0.01428571428571429 0.01  0 0.02857142857142857 0.01  0.05555555555555555 0.02857142857142857 0.01  0.1111111111111111 0.02857142857142857 0.01  0.1666666666666667 0.02857142857142857 0.01  0.2222222222222222 0.02857142857142857 0.01  0.2777777777777778 0.02857142857142857 0.01  0.3333333333333333 0.02857142857142857 0.01  0.3888888888888889 0.02857142857142857 0.01  0.4444444444444444 0.02857142857142857 0.01  0.5 0.02857142857142857 0.01  0.5555555555555556 0.02857142857142857 0.01  0.6111111111111112 0.02857142857142857 0.01  0.6666666666666666 0.02857142857142857 0.01  0.7222222222222222 0.02857142857142857 0.01  0.7777777777777778 0.02857142857142857 0.01  0.8333333333333334 0.02857142857142857 0.01  0.8888888888888888 0.02857142857142857 0.01  0.9444444444444444 0.02857142857142857 0.01  1 0.02857142857142857 0.01  0 0.04285714285714286 0.01  0.05555555555555555 0.04285714285714286 0.01  0.1111111111111111 0.04285714285714286 0.01  0.1666666666666667 0.04285714285714286 0.01  0.2222222222222222 0.04285714285714286 0.01  0.2777777777777778 0.04285714285714286 0.01  0.3333333333333333 0.04285714285714286 0.01  0.3888888888888889 0.04285714285714286 0.01  0.4444444444444444 0.04285714285714286 0.01  0.5 0.04285714285714286 0.01  0.5555555555555556 0.04285714285714286 0.01  0.6111111111111112 0.04285714285714286 0.01  0.6666666666666666 0.04285714285714286 0.01  0.7222222222222222 0.04285714285714286 0.01  0.7777777777777778 0.04285714285714286 0.01  0.8333333333333334 0.04285714285714286 0.01  0.8888888888888888 0.04285714285714286 0.01  0.9444444444444444 0.04285714285714286 0.01  1 0.04285714285714286 0.01  0 0.05714285714285715 0.01  0.05555555555555555 0.05714285714285715 0.01  0.1111111111111111 0.05714285714285715 0.01  0.1666666666666667 0.05714285714285715 0.01  0.2222222222222222 0.05714285714285715 0.01  0.2777777777777778 0.05714285714285715 0.01  0.3333333333333333 0.05714285714285715 0.01  0.3888888888888889 0.05714285714285715 0.01  0.4444444444444444 0.05714285714285715 0.01  0.5 0.05714285714285715 0.01  0.5555555555555556 0.05714285714285715 0.01  0.6111111111111112 0.05714285714285715 0.01  0.6666666666666666 0.05714285714285715 0.01  0.7222222222222222 0.05714285714285715 0.01  0.7777777777777778 0.05714285714285715 0.01  0.8333333333333334 0.05714285714285715 0.01  0.8888888888888888 0.05714285714285715 0.01  0.9444444444444444 0.05714285714285715 0.01  1 0.05714285714285715 0.01  0 0.07142857142857142 0.01  0.05555555555555555 0.07142857142857142 0.01  0.1111111111111111 0.07142857142857142 0.01  0.1666666666666667 0.07142857142857142 0.01  0.2222222222222222 0.07142857142857142 0.01  0.2777777777777778 0.07142857142857142 0.01  0.3333333333333333 0.07142857142857142 0.01  0.3888888888888889 0.07142857142857142 0.01  0.4444444444444444 0.07142857142857142 0.01  0.5 0.07142857142857142 0.01  0.5555555555555556 0.07142857142857142 0.01  0.6111111111111112 0.07142857142857142 0.01  0.6666666666666666 0.07142857142857142 0.01  0.7222222222222222 0.07142857142857142 0.01  0.7777777777777778 0.07142857142857142 0.01  0.8333333333333334 0.07142857142857142 0.01  0.8888888888888888 0.07142857142857142 0.01  
[...]
<PointData  Vectors="f_33"> 
<DataArray  type="Float64"  Name="f_33"  NumberOfComponents="3" format="ascii">0.0000000000000000e+00 0.0000000000000000e+00 0.0000000000000000e+00  -3.4532144970580042e-03 -1.7517218880772404e-04 -5.0510247000035216e-03  -6.4352971579211011e-03 3.0415751546600424e-04 -1.9357602170802873e-02  -9.1506411959634791e-03 1.0757288639011580e-03 -4.2251496025802894e-02  -1.1604444208334092e-02 2.0736243472084504e-03 -7.2900991144866714e-02  -1.3801333720477302e-02 3.2604704414221377e-03 -1.1051897781042794e-01  -1.5745271065853671e-02 4.6094932888272712e-03 -1.5433639162112706e-01  -1.7441996454567867e-02 6.0978235100543439e-03 -2.0360151839110471e-01  -1.8899378277785064e-02 7.7044446982797330e-03 -2.5758401218817489e-01  -2.0127486251291678e-02 9.4095912732609470e-03 -3.1558048902884817e-01  -2.1138661135671248e-02 1.1194657403498613e-02 -3.7692086859787666e-01  -2.1947582523247740e-02 1.3042292637799534e-02 -4.4097514902588081e-01  -2.2571321763442963e-02 1.4936568401182657e-02 -5.0716044762713253e-01  -2.3029377349450628e-02 1.6863172559978729e-02 -5.7494820408541825e-01  -2.3343695233144088e-02 1.8809616296279356e-02 -6.4387147753589979e-01  -2.3538679526566936e-02 2.0765448830866062e-02 -7.1353229232417470e-01  -2.3641214529421587e-02 2.2722478888300552e-02 -7.8360900843976133e-01  -2.3680757711488063e-02 2.4674988969273195e-02 -8.5386378744809444e-01  -2.3689203730143615e-02 2.6620122729876673e-02 -9.2415105306974343e-01  0.0000000000000000e+00 0.0000000000000000e+00 0.0000000000000000e+00  -3.3119868554414172e-03 -5.6975776163018626e-06 -5.2002187445487104e-03  -6.3808703432324393e-03 4.5390402864416238e-04 -1.9463270961384033e-02  -9.1716004031737221e-03 1.2109303168543386e-03 -4.2252360228839221e-02  -1.1695324587341276e-02 2.1948198467075250e-03 -7.2786312707229947e-02  -1.3956262008713843e-02 3.3679322326657722e-03 -1.1029185875441366e-01  -1.5958391225420206e-02 4.7035314678429089e-03 -1.5400455458640286e-01  -1.7707503462116869e-02 6.1788533599712219e-03 -2.0317432432185711e-01  -1.9211521119271793e-02 7.7729986150434369e-03 -2.5707139493805137e-01  -2.0480587286364454e-02 9.4663233679958322e-03 -3.1499252032111402e-01  -2.1527150792588004e-02 1.1240347481771502e-02 -3.7626754664224454e-01  -2.2366042546037735e-02 1.3077849377557977e-02 -4.4026626715504652e-01  -2.3014533216030999e-02 1.4963031500177726e-02 -5.0640549047109362e-01  -2.3492371544658722e-02 1.6881713891720180e-02 -5.7415625210069132e-01  -2.3821806545207953e-02 1.8821540063221773e-02 -6.4305111266329351e-01  -2.4027598096870148e-02 2.0772190555289963e-02 -7.1269150042017693e-01  -2.4137030419585984e-02 2.2725603189041588e-02 -7.8275506997835886e-01  -2.4180017310144675e-02 2.4676171178272116e-02 -8.5300311946529228e-01  -2.4189591841279116e-02 2.6620731104076232e-02 -9.2328882302923954e-01  0.0000000000000000e+00 0.0000000000000000e+00 0.0000000000000000e+00  -3.3171325811008679e-03 1.2412698100007692e-04 -5.2601782733451554e-03  -6.4322047889410683e-03 6.0130520365615499e-04 -1.9466354284697934e-02  -9.2829170598249869e-03 1.3533715998356975e-03 -4.2154773835533864e-02  -1.1865103626660168e-02 2.3258450602870861e-03 -7.2581821478818656e-02  -1.4180026099668515e-02 3.4854859100088738e-03 -1.0998448281496011e-01  -1.6230963361217661e-02 4.8071447191807950e-03 -1.5360208973589384e-01  -1.8023562697414862e-02 6.2686743798700201e-03 -2.0268593340129998e-01  -1.9565781921742256e-02 7.8494717638087283e-03 -2.5650667227731128e-01  -2.0867884622366294e-02 9.5300835657706855e-03 -3.1436109172489396e-01  -2.1942501157454743e-02 1.1292185556584594e-02 -3.7557886723166689e-01  -2.2804698138797153e-02 1.3118701366791654e-02 -4.3952949177992573e-01  -2.3472034491021074e-02 1.4993975859415653e-02 -5.0562936967975258e-01  -2.3964599888866050e-02 1.6903970932338901e-02 -5.7334903627524259e-01  -2.4305037444811113e-02 1.8836471306448038e-02 -6.4222045792179028e-01  -2.4518553411977350e-02 2.0781296399152500e-02 -7.1184437327341554e-01  -2.4632921485219447e-02 2.2730518929721805e-02 -7.8189764634223569e-01  -2.4678565267781789e-02 2.4678665159084290e-02 -8.5214066071283057e-01  -2.4689120002443197e-02 2.6622492951828898e-02 -9.2242540513429994e-01  0.0000000000000000e+00 0.0000000000000000e+00 0.0000000000000000e+00  -3.3458953451155223e-03 2.3712526195540564e-04 -5.2450429481087938e-03  -6.5074664848567597e-03 7.4482032100083799e-04 -1.9363217693502143e-02  -9.4164747996328367e-03 1.4993981146418534e-03 -4.1950164815405470e-02  -1.2055209221515399e-02 2.4629503670764229e-03 -7.2277312171493149e-02  -1.4421966776645177e-02 3.6096432412256307e-03 -1.0958671729269452e-01  -1.6519497539086329e-02 4.9171295112882254e-03 -1.5311959942065909e-01  -1.8353396619141607e-02 6.3643582220084980e-03 -2.0212791377333619e-01  -1.9931702455449937e-02 7.9312055737852244e-03 -2.5588244225970208e-01  -2.1264828690297891e-02 9.5984806360742102e-03 -3.1367982672475148e-01  -2.2365611752316959e-02 1.1348045746357690e-02 -3.7484944271508691e-01  -2.3249376996652662e-02 1.3162985123860120e-02 -4.3876036896101711e-01  -2.3933994250616278e-02 1.5027795811197356e-02 -5.0482849619329206e-01  -2.4439916682033075e-02 1.6928589319359436e-02 -5.7252375162409008e-01  -2.4790204096564395e-02 1.8853298623265458e-02 -6.4137740011366495e-01  -2.5010532627385524e-02 2.0791888436975759e-02 -7.1098938558561764e-01  -2.5129191495070192e-02 2.2736571555432575e-02 -7.8103568316531191e-01  -2.5177123885997188e-02 2.4682019394538270e-02 -8.5127567931466397e-01  -2.5188492205078510e-02 2.6625137300301607e-02 -9.2156011883918498e-01  0.0000000000000000e+00 0.0000000000000000e+00 0.0000000000000000e+00  -3.3683007960524708e-03 3.4860989259039276e-04 -5.1607287839383646e-03  -6.5844253070811848e-03 8.8881307484149706e-04 -1.9158886552263738e-02  -9.5549928176558337e-03 1.6486863936916410e-03 -4.1638997258298741e-02  -1.2251177209591941e-02 2.6045756547904792e-03 -7.1871522465084672e-02  -1.4669754993985158e-02 3.7385631043751447e-03 -1.0909670716564464e-01  -1.6813532553969893e-02 5.0316630977737514e-03 -1.5255511076578385e-01  -1.8688263158827937e-02 6.4641952325801139e-03 -2.0149836746428434e-01  -2.0302142353048083e-02 8.0166331016726811e-03 -2.5519695530887837e-01  -2.1665764579370198e-02 9.6700980045838231e-03 -3.1294714942534341e-01  -2.2792186613442435e-02 1.1406661066928007e-02 -3.7407787647791674e-01  -2.3697000679902113e-02 1.3209578565501678e-02 -4.3795767839954747e-01  -2.4398393389835037e-02 1.5063507135255857e-02 -5.0400181871683936e-01  -2.4917186521741418e-02 1.6954713878306313e-02 -5.7167950572653581e-01  -2.5276861539843872e-02 1.8871285679664684e-02 -6.4052119314944123e-01  -2.5503570527402541e-02 2.0803338422671156e-02 -7.1012592222523485e-01  -2.5626130493505619e-02 2.2743230080721370e-02 -7.8016867636804621e-01  -2.5676023467937074e-02 2.4685786500707074e-02 -8.5040775211181641e-01  -2.5687980095360500e-02 2.6628242295598695e-02 -9.2069262651115436e-01  0.0000000000000000e+00 0.0000000000000000e+00 0.0000000000000000e+00  -3.3735853126248150e-03 4.7162897465140280e-04 -5.0040974945640389e-03  -6.6525198028006506e-03 1.0403437296234534e-03 -1.8852706507529123e-02  -9.6892355517005750e-03 1.8038048056643599e-03 -4.1220933454976905e-02  -1.2444820646237519e-02 2.7513404391500355e-03 -7.1363776393038411e-02  -1.4916183983339519e-02 3.8721505038428715e-03 -1.0851358232947891e-01  -1.7106819314827274e-02 5.1503916997246053e-03 -1.5190771725692240e-01  -1.9022838422398967e-02 6.5677370615210111e-03 -2.0079643238229303e-01  -2.0672660391533874e-02 8.1052717382169640e-03 -2.5444942846782387e-01  -2.2067082534747696e-02 9.7444414598785566e-03 -3.1216236901512689e-01  -2.3219387398581707e-02 1.1467534530565574e-02 -3.7326357337687183e-01  -2.4145432986417453e-02 1.3257985636220210e-02 -4.3712091986395690e-01  -2.4863719120500605e-02 1.5100616523511556e-02 -5.0314892896160934e-01  -2.5395431746651306e-02 1.6981855170331354e-02 -5.7081597779976789e-01  -2.5764469304388932e-02 1.8889947858619437e-02 -6.3965159791485127e-01  -2.5997455691661245e-02 2.0815168146649184e-02 -7.0925381763842954e-01  -2.6123739926530446e-02 2.2750026329802171e-02 -7.7929652094783486e-01  -2.6175372326485185e-02 2.4689511514766744e-02 -8.4953681695891214e-01  -2.6187715788541809e-02 2.6631323701603156e-02 -9.1982291170344455e-01  0.0000000000000000e+00 0.0000000000000000e+00 0.0000000000000000e+00  -3.3464345785409098e-03 6.1752847723901209e-04 -4.7601461268467794e-03  -6.6939216394099376e-03 1.2061046065528238e-03 -1.8436416118256565e-02  -9.8011839209059832e-03 1.9679832413649376e-03 -4.0691839736009643e-02  -1.2618998168501580e-02 2.9046562756589196e-03 -7.0751371308806918e-02  -1.5145585716512215e-02 4.0110084165400689e-03 -1.0783526885040423e-01  -1.7385376485827799e-02 5.2735586875762375e-03 -1.5117573639834739e-01  -1.9344876664958113e-02 6.6750490422827925e-03 -2.0002073795642153e-01  -2.1032724656906716e-02 8.1970807661866374e-03 -2.5363876869916807e-01  -2.2459906290731208e-02 9.8213936968084333e-03 -3.1132464832014078e-01  -2.3639911138389529e-02 1.1530485716224130e-02 -3.7240593292584390e-01  -2.4588842035428299e-02 1.3307970578033998e-02 -4.3624970944061597e-01  -2.5325490044861853e-02 1.5138838905662493e-02 -5.0226963731940144e-01  -2.5871382883614191e-02 1.7009684560389832e-02 -5.6993314764851188e-01  -2.6250813420501139e-02 1.8908918957806293e-02 -6.3876873579543814e-01  -2.6490854455895784e-02 2.0826980545329783e-02 -7.0837330302596668e-01  -2.6621369741946916e-02 2.2756541971362450e-02 -7.7841951857002034e-01  -2.6675004232294616e-02 2.4692756408009584e-02 -8.4866319879664120e-01  -2.6687745511499616e-02 2.6633890258338261e-02 -9.1895128310700036e-01  0.0000000000000000e+00 0.0000000000000000e+00 0.0000000000000000e+00  -3.2200124635659421e-03 7.7736233320410068e-04 -4.4216689824247103e-03  -6.6335723326067944e-03 1.3774747023398064e-03 -1.7910457482369982e-02  -9.8171900419923644e-03 2.1328144120971678e-03 -4.0056559373484742e-02  -1.2704692666663442e-02 3.0564659336769760e-03 -7.0040475172072181e-02  -1.5295149585421094e-02 4.1476801052606873e-03 -1.0706814228022964e-01  -1.7593152130023583e-02 5.3944609213452078e-03 -1.5036531082683688e-01  -1.9605186282412295e-02 6.7802404473106060e-03 -1.9917702315349214e-01  -2.1339896640063711e-02 8.2869853326009834e-03 -2.5277024431211514e-01  -2.2808324632460145e-02 9.8966700524187774e-03 -3.1043875903076945e-01  -2.4024062534986890e-02 1.1591977581801922e-02 -3.7150922171744838e-01  -2.5003363125630049e-02 1.3356689557729862e-02 -4.3534780897170089e-01  -2.5765216523027636e-02 1.5175959322841746e-02 -5.0136720699043624e-01  -2.6331400558288712e-02 1.7036542365755560e-02 -5.6903379067373527e-01  -2.6726510810041494e-02 1.8927011850115652e-02 -6.3787490960843596e-01  -2.6977977115941805e-02 2.0837968953692991e-02 -7.0748622794449201e-01  -2.7116078796842854e-02 2.2762255023177271e-02 -7.7753908626899204e-01  -2.7174022355892724e-02 2.4695164700157299e-02 -8.4778783931441959e-01  -2.7188142886506103e-02 2.6635618043897819e-02 -9.1807816728471214e-01  0.0000000000000000e+00 0.0000000000000000e+00 0.0000000000000000e+00  -1.5626880059207561e-03 -4.2010675340364834e-05 -4.9051805937081550e-03  -2.9585171515308100e-03 4.0408094994117327e-04 -1.9223016382301051e-02  -4.2223823296025182e-03 1.0977413517324231e-03 -4.2128087159723465e-02  -5.3653878416866857e-03 2.0116618388090171e-03 -7.2789177361537546e-02  -6.3899765994468978e-03 3.1173448473266374e-03 -1.1041883219297813e-01  -7.2976484761364370e-03 4.3908785574911947e-03 -1.5424781215405042e-01  -8.0908430466337718e-03 5.8104220932450818e-03 -2.0352426427234688e-01  -8.7730765990291035e-03 7.3553289069913444e-03 -2.5751772693639108e-01  -9.3489213793778361e-03 9.0059308090559079e-03 -3.1552470862850224e-01  -9.8240120062960852e-03 1.0743583478910447e-02 -3.7687502218646640e-01  -1.0205067288664054e-02 1.2550810718841850e-02 -4.4093855727005948e-01  -1.0499911463679130e-02 1.4411487385615124e-02 -5.0713232089683657e-01  -1.0717489433618891e-02 1.6311038648464966e-02 -5.7492764105498706e-01  -1.0867875661132217e-02 1.8236647095849729e-02 -6.4385746424167589e-01  -1.0962279176837344e-02 2.0177464780121043e-02 -7.1352370141794941e-01  -1.1013054565513276e-02 2.2124825467982046e-02 -7.8360459676667482e-01  -1.1033740495608452e-02 2.4072422816438930e-02 -8.5386218386490131e-01  -1.1038794564191403e-02 2.6016601723669267e-02 -9.2415034770730131e-01  0.0000000000000000e+00 0.0000000000000000e+00 0.0000000000000000e+00  -1.5490035006249590e-03 6.2386450146712869e-05 -5.0390452008189698e-03  -3.0332334865567903e-03 4.8824611442402192e-04 -1.9326955570351901e-02  -4.3611095717299743e-03 1.1740199985545352e-03 -4.2128542085856917e-02  -5.5624551199920380e-03 2.0802660255035358e-03 -7.2674488840572593e-02  -6.6394464356124691e-03 3.1783507039063606e-03 -1.1019179196475563e-01  -7.5938187475434252e-03 4.4444091278714832e-03 -1.5391604493262179e-01  -8.4282024817762397e-03 5.8566805370371703e-03 -2.0309709985449212e-01  -9.1462816133850242e-03 7.3945929239330969e-03 -2.5700509237057517e-01  -9.7528097565014616e-03 9.0385492770068965e-03 -3.1493667843397100e-01  -1.0253637966963054e-02 1.0769976288266944e-02 -3.7622160149199785e-01  -1.0655746417839951e-02 1.2571469677805015e-02 -4.4022954837015449e-01  -1.0967270255008500e-02 1.4426977132391119e-02 -5.0637721862351814e-01  -1.1197517264408886e-02 1.6321997241044377e-02 -5.7413553699482578e-01  -1.1356978184132241e-02 1.8243786212109887e-02 -6.4303695230201152e-01  -1.1457331547195460e-02 2.0181569754480617e-02 -7.1268278046111466e-01  -1.1511449482166666e-02 2.2126756449973459e-02 -7.8275056251234099e-01  -1.1533451017114589e-02 2.4073115045017347e-02 -8.5300146771085195e-01  -1.1538903150134942e-02 2.6016850763273772e-02 -9.2328827267191538e-01  0.0000000000000000e+00 0.0000000000000000e+00 0.0000000000000000e+00  -1.5790201792428454e-03 1.3253733813325009e-04 -5.0930360315928399e-03  -3.1195984253041919e-03 5.6426856578452788e-04 -1.9323088913529640e-02  -4.5082498015456161e-03 1.2469096861253506e-03 -4.2027221650847296e-02  -5.7657440742585366e-03 2.1470622125611531e-03 -7.2467514237267924e-02  -6.8936309543061267e-03 3.2381985594588276e-03 -1.0988252105208673e-01  -7.8934944660539741e-03 4.4971279404339244e-03 -1.5351203515468254e-01  -8.7680197810404859e-03 5.9023643378222548e-03 -2.0260742614386909e-01  -9.5210170270071739e-03 7.4334731759727671e-03 -2.5643931211301235e-01  -1.0157413504113416e-02 9.0709497801573363e-03 -3.1430439732567877e-01  -1.0683281612498414e-02 1.0796298500729684e-02 -3.7553225933512702e-01  -1.1105872493980269e-02 1.2592188299740932e-02 -4.3949228509285881e-01  -1.1433643455198126e-02 1.4442639044056085e-02 -5.0560076860690017e-01  -1.1676276850842262e-02 1.6333221350404610e-02 -5.7332813257139814e-01  -1.1844691240448329e-02 1.8251263208425839e-02 -6.4220622937462979e-01  -1.1951045646708796e-02 2.0186061219309829e-02 -7.1183568304682165e-01  -1.2008738534098793e-02 2.2129095210677796e-02 -7.8189324229948787e-01  -1.2032452212205736e-02 2.4074215830088511e-02 -8.5213916160138892e-01  -1.2038511409815980e-02 2.6017600402663869e-02 -9.2242507352977321e-01  0.0000000000000000e+00 0.0000000000000000e+00 0.0000000000000000e+00  -1.6215843579220914e-03 1.9209644276064832e-04 -5.0732272079885210e-03  -3.2165918883462481e-03 6.3629199488156524e-04 -1.9214577940908990e-02  -4.6643752345414437e-03 1.3196123697779250e-03 -4.1818675857553209e-02  -5.9770076822477465e-03 2.2152480610726447e-03 -7.2160080788045783e-02  -7.1548106926626488e-03 3.2998837123451165e-03 -1.0948241713380201e-01  -8.1991956102132734e-03 4.5517272682015957e-03 -1.5302759396409835e-01  -9.1129241051947606e-03 5.9498289479799514e-03 -2.0204775900879268e-01  -9.8999459483503378e-03 7.4739852775694733e-03 -2.5581369979166790e-01  -1.0565373094232810e-02 9.1048183647521961e-03 -3.1362199326531170e-01  -1.1115509548940885e-02 1.0823923899715118e-02 -3.7480192158160808e-01  -1.1557887523220152e-02 1.2614050250011385e-02 -4.3872245754409789e-01  -1.1901296541145592e-02 1.4459292874655963e-02 -5.0479937999139601e-01  -1.2155803527468005e-02 1.6345296828556753e-02 -5.7250250123904833e-01  -1.2332764804128709e-02 1.8259463845864576e-02 -6.4136296966343942e-01  -1.2444830396116567e-02 2.0191162631574326e-02 -7.1098061195201412e-01  -1.2505937208113575e-02 2.2131943718588645e-02 -7.8103128620411544e-01  -1.2531326442498335e-02 2.4075744926519697e-02 -8.5127425288327052e-01  -1.2537954235317573e-02 2.6018851345668795e-02 -9.2155992633297290e-01  0.0000000000000000e+00 0.0000000000000000e+00 0.0000000000000000e+00  -1.6620013287018147e-03 2.5191177235887131e-04 -4.9867262978912042e-03  -3.3153505231179057e-03 7.0930169441148563e-04 -1.9006608683754849e-02  -4.8232034070501695e-03 1.3947760032883667e-03 -4.1504039675506740e-02  -6.1912249050965380e-03 2.2864946874000302e-03 -7.1751409995792020e-02  -7.4188255516679825e-03 3.3646910172060612e-03 -1.0898999139283119e-01  -8.5074998700231524e-03 4.6092607285439409e-03 -1.5246104294128762e-01  -9.4601631085427136e-03 5.9999446968340246e-03 -2.0141644610375936e-01  -1.0280931243287803e-02 7.5168353579921450e-03 -2.5512671236477258e-01  -1.0975112146486323e-02 9.1407087327351928e-03 -3.1288806236908917e-01  -1.1549247430398939e-02 1.0853264211590094e-02 -3.7402933198556271e-01  -1.2011154332993936e-02 1.2637336320565065e-02 -4.3791895662607433e-01  -1.2369957773933848e-02 1.4477100780911863e-02 -5.0397208605705002e-01  -1.2636112136197059e-02 1.6358281019085159e-02 -5.7165781130955029e-01  -1.2821414325961534e-02 1.8268356232579018e-02 -6.4050646706446879e-01  -1.2939009096444338e-02 2.0196770730484873e-02 -7.1011697466008883e-01  -1.3003380578196623e-02 2.2135147430107534e-02 -7.8016419847639906e-01  -1.3030338445764712e-02 2.4077515140258136e-02 -8.5040631344579254e-01  -1.3037431731326885e-02 2.6020386081571430e-02 -9.2069247884008187e-01  0.0000000000000000e+00 0.0000000000000000e+00 0.0000000000000000e+00  -1.6944408399063810e-03 3.2022870960404993e-04 -4.8315967780544972e-03  -3.4098969203221001e-03 7.8814989974492150e-04 -1.8699153420846062e-02  -4.9797647729198915e-03 1.4748642996314446e-03 -4.1083895811883500e-02  -6.4039883579557616e-03 2.3621808267225279e-03 -7.1241634988670047e-02  -7.6818067891982339e-03 3.4335383541972448e-03 -1.0840503691383270e-01  -8.8150751790630234e-03 4.6704194201811723e-03 -1.5181202764692153e-01  -9.8069282246533076e-03 6.0532573683096122e-03 -2.0071308725878165e-01  -1.0661663962261033e-02 7.5624544928326615e-03 -2.5437795004355207e-01  -1.1384790207656967e-02 9.1789506952802517e-03 -3.1210222565739260e-01  -1.1983086105332949e-02 1.0884555851215507e-02 -3.7321414214181281e-01  -1.2464652118439376e-02 1.2662195945432241e-02 -4.3708147001953090e-01  -1.2838946059926769e-02 1.4496131695920950e-02 -5.0311861437213257e-01  -1.3116807021419818e-02 1.6372169478497813e-02 -5.7079383325379229e-01  -1.3310469688325168e-02 1.8277870636019822e-02 -6.3963653731041448e-01  -1.3433571319345299e-02 2.0202760206415451e-02 -7.0924463301421781e-01  -1.3501147991404810e-02 2.2138537497004170e-02 -7.7929188302211927e-01  -1.3529600517323262e-02 2.4079323204576477e-02 -8.4953527879970503e-01  -1.3537056954052671e-02 2.6021947461920096e-02 -9.1982270630254936e-01  0.0000000000000000e+00 0.0000000000000000e+00 0.0000000000000000e+00  -1.7145450156341594e-03 4.0705513855631900e-04 -4.5944532052156380e-03  -3.4937498335884613e-03 8.7939444733966729e-04 -1.8285040247539547e-02  -5.1271274763908898e-03 1.5642096008036119e-03 -4.0555270897209506e-02  -6.6085183310266313e-03 2.4453943497748025e-03 -7.0629125308289784e-02  -7.9374853099849572e-03 3.5088229679671400e-03 -1.0772639788854992e-01  -9.1163007322173275e-03 4.7371623848583870e-03 -1.5107963180100817e-01  -1.0148286872256300e-02 6.1113924861109000e-03 -1.9993693938507559e-01  -1.1037898871663277e-02 7.6121813242832417e-03 -2.5356682071744130e-01  -1.1790829016821661e-02 9.2206221305059597e-03 -3.1126403169058281e-01  -1.2414082269188701e-02 1.0918635901618151e-02 