<?xml version="1.0"?>
<VTKFile type="UnstructuredGrid"  version="0.1"  >
<UnstructuredGrid>
<Piece  NumberOfPoints="760" NumberOfCells="3024">
<Points>
<DataArray  type="Float64"  NumberOfComponents="3"  format="ascii">0 0 0  0.05555555555555555 0 0  0.1111111111111111 0 0  0.1666666666666667 0 0  0.2222222222222222 0 0  0.2777777777777778 0 0  0.3333333333333333 0 0  0.3888888888888889 0 0  0.4444444444444444 0 0  0.5 0 0  0.5555555555555556 0 0  0.6111111111111112 0 0  0.6666666666666666 0 0  0.7222222222222222 0 0  0.7777777777777778 0 0  0.8333333333333334 0 0  0.8888888888888888 0 0  0.9444444444444444 0 0  1 0 0  0 0.01428571428571429 0  0.05555555555555555 0.01428571428571429 0  0.1111111111111111 0.01428571428571429 0  0.1666666666666667 0.01428571428571429 0  0.2222222222222222 0.01428571428571429 0  0.2777777777777778 0.01428571428571429 0  0.3333333333333333 0.01428571428571429 0  0.3888888888888889 0.01428571428571429 0  0.4444444444444444 0.01428571428571429 0  0.5 0.01428571428571429 0  0.5555555555555556 0.01428571428571429 0  0.6111111111111112 0.01428571428571429 0  0.6666666666666666 0.01428571428571429 0  0.7222222222222222 0.01428571428571429 0  0.7777777777777778 0.01428571428571429 0  0.8333333333333334 0.01428571428571429 0  0.8888888888888888 0.01428571428571429 0  0.9444444444444444 0.01428571428571429 0  1 0.01428571428571429 0  0 0.02857142857142857 0  0.05555555555555555 0.02857142857142857 0  0.1111111111111111 0.02857142857142857 0  0.1666666666666667 0.02857142857142857 0  0.2222222222222222 0.02857142857142857 0  0.2777777777777778 0.02857142857142857 0  0.3333333333333333 0.02857142857142857 0  0.3888888888888889 0.02857142857142857 0  0.4444444444444444 0.02857142857142857 0  0.5 0.02857142857142857 0  0.5555555555555556 0.02857142857142857 0  0.6111111111111112 0.02857142857142857 0  0.6666666666666666 0.02857142857142857 0  0.7222222222222222 0.02857142857142857 0  0.7777777777777778 0.02857142857142857 0  0.8333333333333334 0.02857142857142857 0  0.8888888888888888 0.02857142857142857 0  0.9444444444444444 0.02857142857142857 0  1 0.02857142857142857 0  0 0.04285714285714286 0  0.05555555555555555 0.04285714285714286 0  0.1111111111111111 0.04285714285714286 0  0.1666666666666667 0.04285714285714286 0  0.2222222222222222 0.04285714285714286 0  0.2777777777777778 0.04285714285714286 0  0.3333333333333333 0.04285714285714286 0  0.3888888888888889 0.04285714285714286 0  0.4444444444444444 0.04285714285714286 0  0.5 0.04285714285714286 0  0.5555555555555556 0.04285714285714286 0  0.6111111111111112 0.04285714285714286 0  0.6666666666666666 0.04285714285714286 0  0.7222222222222222 0.04285714285714286 0  0.7777777777777778 0.04285714285714286 0  0.8333333333333334 0.04285714285714286 0  0.8888888888888888 0.04285714285714286 0  0.9444444444444444 0.04285714285714286 0  1 0.04285714285714286 0  0 0.05714285714285715 0  0.05555555555555555 0.05714285714285715 0  0.1111111111111111 0.05714285714285715 0  0.1666666666666667 0.05714285714285715 0  0.2222222222222222 0.05714285714285715 0  0.2777777777777778 0.05714285714285715 0  0.3333333333333333 0.05714285714285715 0  0.3888888888888889 0.05714285714285715 0  0.4444444444444444 0.05714285714285715 0  0.5 0.05714285714285715 0  0.5555555555555556 0.05714285714285715 0  0.6111111111111112 0.05714285714285715 0  0.6666666666666666 0.05714285714285715 0  0.7222222222222222 0.05714285714285715 0  0.7777777777777778 0.05714285714285715 0  0.8333333333333334 0.05714285714285715 0  0.8888888888888888 0.05714285714285715 0  0.9444444444444444 0.05714285714285715 0  1 0.05714285714285715 0  0 0.07142857142857142 0  0.05555555555555555 0.07142857142857142 0  0.1111111111111111 0.07142857142857142 0  0.1666666666666667 0.07142857142857142 0  0.2222222222222222 0.07142857142857142 0  0.2777777777777778 0.07142857142857142 0  0.3333333333333333 0.07142857142857142 0  0.3888888888888889 0.07142857142857142 0  0.4444444444444444 0.07142857142857142 0  0.5 0.07142857142857142 0  0.5555555555555556 0.07142857142857142 0  0.6111111111111112 0.07142857142857142 0  0.6666666666666666 0.07142857142857142 0  0.7222222222222222 0.07142857142857142 0  0.7777777777777778 0.07142857142857142 0  0.8333333333333334 0.07142857142857142 0  0.8888888888888888 0.07142857142857142 0  0.9444444444444444 0.07142857142857142 0  1 0.07142857142857142 0  0 0.08571428571428573 0  0.05555555555555555 0.08571428571428573 0  0.1111111111111111 0.08571428571428573 0  0.1666666666666667 0.08571428571428573 0  0.2222222222222222 0.08571428571428573 0  0.2777777777777778 0.08571428571428573 0  0.3333333333333333 0.08571428571428573 0  0.3888888888888889 0.08571428571428573 0  0.4444444444444444 0.08571428571428573 0  0.5 0.08571428571428573 0  0.5555555555555556 0.08571428571428573 0  0.6111111111111112 0.08571428571428573 0  0.6666666666666666 0.08571428571428573 0  0.7222222222222222 0.08571428571428573 0  0.7777777777777778 0.08571428571428573 0  0.8333333333333334 0.08571428571428573 0  0.8888888888888888 0.08571428571428573 0  0.9444444444444444 0.08571428571428573 0  1 0.08571428571428573 0  0 0.1 0  0.05555555555555555 0.1 0  0.1111111111111111 0.1 0  0.1666666666666667 0.1 0  0.2222222222222222 0.1 0  0.2777777777777778 0.1 0  0.3333333333333333 0.1 0  0.3888888888888889 0.1 0  0.4444444444444444 0.1 0  0.5 0.1 0  0.5555555555555556 0.1 0  0.6111111111111112 0.1 0  0.6666666666666666 0.1 0  0.7222222222222222 0.1 0  0.7777777777777778 0.1 0  0.8333333333333334 0.1 0  0.8888888888888888 0.1 0  0.9444444444444444 0.1 0  1 0.1 0  0 0 0.01  0.05555555555555555 0 0.01  0.1111111111111111 0 0.01  0.1666666666666667 0 0.01  0.2222222222222222 0 0.01  0.2777777777777778 0 0.01  0.3333333333333333 0 0.01  0.3888888888888889 0 0.01  0.4444444444444444 0 0.01  0.5 0 0.01  0.5555555555555556 0 0.01  0.6111111111111112 0 0.01  0.6666666666666666 0 0.01  0.7222222222222222 0 0.01  0.7777777777777778 0 0.01  0.8333333333333334 0 0.01  0.8888888888888888 0 0.01  0.9444444444444444 0 0.01  1 0 0.01  0 0.01428571428571429 0.01  0.05555555555555555 0.01428571428571429 0.01  0.1111111111111111 0.01428571428571429 0.01  0.1666666666666667 0.01428571428571429 0.01  0.2222222222222222 0.01428571428571429 0.01  0.2777777777777778 0.01428571428571429 0.01  0.3333333333333333 0.01428571428571429 0.01  0.3888888888888889 0.01428571428571429 0.01  0.4444444444444444 0.01428571428571429 0.01  0.5 0.01428571428571429 0.01  0.5555555555555556 0.01428571428571429 0.01  0.6111111111111112 0.01428571428571429 0.01  0.6666666666666666 0.01428571428571429 0.01  0.7222222222222222 0.01428571428571429 0.01  0.7777777777777778 0.01428571428571429 0.01  0.8333333333333334 0.01428571428571429 0.01  0.8888888888888888 0.01428571428571429 0.01  0.9444444444444444 0.01428571428571429 0.01  1 0.01428571428571429 0.01  0 0.02857142857142857 0.01  0.05555555555555555 0.02857142857142857 0.01  0.1111111111111111 0.02857142857142857 0.01  0.1666666666666667 0.02857142857142857 0.01  0.2222222222222222 0.02857142857142857 0.01  0.2777777777777778 0.02857142857142857 0.01  0.3333333333333333 0.02857142857142857 0.01  0.3888888888888889 0.02857142857142857 0.01  0.4444444444444444 0.02857142857142857 0.01  0.5 0.02857142857142857 0.01  0.5555555555555556 0.02857142857142857 0.01  0.6111111111111112 0.02857142857142857 0.01  0.6666666666666666 0.02857142857142857 0.01  0.7222222222222222 0.02857142857142857 0.01  0.7777777777777778 0.02857142857142857 0.01  0.8333333333333334 0.02857142857142857 0.01  0.8888888888888888 0.02857142857142857 0.01  0.9444444444444444 0.02857142857142857 0.01  1 0.02857142857142857 0.01  0 0.04285714285714286 0.01  0.05555555555555555 0.04285714285714286 0.01  0.1111111111111111 0.04285714285714286 0.01  0.1666666666666667 0.04285714285714286 0.01  0.2222222222222222 0.04285714285714286 0.01  0.2777777777777778 0.04285714285714286 0.01  0.3333333333333333 0.04285714285714286 0.01  0.3888888888888889 0.04285714285714286 0.01  0.4444444444444444 0.04285714285714286 0.01  0.5 0.04285714285714286 0.01  0.5555555555555556 0.04285714285714286 0.01  0.6111111111111112 0.04285714285714286 0.01  0.6666666666666666 0.04285714285714286 0.01  0.7222222222222222 0.04285714285714286 0.01  0.7777777777777778 0.04285714285714286 0.01  0.8333333333333334 0.04285714285714286 0.01  0.8888888888888888 0.04285714285714286 0.01  0.9444444444444444 0.04285714285714286 0.01  1 0.04285714285714286 0.01  0 0.05714285714285715 0.01  0.05555555555555555 0.05714285714285715 0.01  0.1111111111111111 0.05714285714285715 0.01  0.1666666666666667 0.05714285714285715 0.01  0.2222222222222222 0.05714285714285715 0.01  0.2777777777777778 0.05714285714285715 0.01  0.3333333333333333 0.05714285714285715 0.01  0.3888888888888889 0.05714285714285715 0.01  0.4444444444444444 0.05714285714285715 0.01  0.5 0.05714285714285715 0.01  0.5555555555555556 0.05714285714285715 0.01  0.6111111111111112 0.05714285714285715 0.01  0.6666666666666666 0.05714285714285715 0.01  0.7222222222222222 0.05714285714285715 0.01  0.7777777777777778 0.05714285714285715 0.01  0.8333333333333334 0.05714285714285715 0.01  0.8888888888888888 0.05714285714285715 0.01  0.9444444444444444 0.05714285714285715 0.01  1 0.05714285714285715 0.01  0 0.07142857142857142 0.01  0.05555555555555555 0.07142857142857142 0.01  0.1111111111111111 0.07142857142857142 0.01  0.1666666666666667 0.07142857142857142 0.01  0.2222222222222222 0.07142857142857142 0.01  0.2777777777777778 0.07142857142857142 0.01  0.3333333333333333 0.07142857142857142 0.01  0.3888888888888889 0.07142857142857142 0.01  0.4444444444444444 0.07142857142857142 0.01  0.5 0.07142857142857142 0.01  0.5555555555555556 0.07142857142857142 0.01  0.6111111111111112 0.07142857142857142 0.01  0.6666666666666666 0.07142857142857142 0.01  0.7222222222222222 0.07142857142857142 0.01  0.7777777777777778 0.07142857142857142 0.01  0.8333333333333334 0.07142857142857142 0.01  0.8888888888888888 0.07142857142857142 0.01  
[...]
<PointData  Vectors="f_33"> 
<DataArray  type="Float64"  Name="f_33"  NumberOfComponents="3" format="ascii">0.0000000000000000e+00 0.0000000000000000e+00 0.0000000000000000e+00  2.2441838636346389e-03 1.3399247587659818e-04 3.2378331138475007e-03  4.1870544960305517e-03 -1.2214395831456839e-04 1.2411113465472809e-02  5.9593301365000375e-03 -5.3532205168142820e-04 2.7100562500092806e-02  7.5637424951669691e-03 -1.0659236238769524e-03 4.6779924667147539e-02  9.0029356838045027e-03 -1.6928931047429496e-03 7.0950834428292947e-02  1.0279123512191155e-02 -2.4019296261901320e-03 9.9125603564666681e-02  1.1395598449086226e-02 -3.1811543929906737e-03 1.3082650206739402e-01  1.2356965744113740e-02 -4.0197733499427041e-03 1.6558808785965012e-01  1.3169219943531898e-02 -4.9076673136469601e-03 2.0296061679232313e-01  1.3839826674119038e-02 -5.8353096057110702e-03 2.4251402847259734e-01  1.4377806754327668e-02 -6.7938045467289135e-03 2.8384232201816528e-01  1.4793811620457358e-02 -7.7749730211267385e-03 3.2656822214042264e-01  1.5100185819707656e-02 -8.7714578047661008e-03 3.7034806870654152e-01  1.5311015903515753e-02 -9.7768385017376388e-03 4.1487687799388140e-01  1.5442167470072850e-02 -1.0785753113396824e-02 4.5989353263121946e-01  1.5511322895295941e-02 -1.1794025569186203e-02 5.0518606640535124e-01  1.5538059585614661e-02 -1.2798789793779934e-02 5.5059707031115002e-01  1.5543784528324205e-02 -1.3798714689103765e-02 5.9602979545712764e-01  0.0000000000000000e+00 0.0000000000000000e+00 0.0000000000000000e+00  2.1439589080020924e-03 2.3192879135765970e-05 3.3332625756408055e-03  4.1345838460949439e-03 -2.2030344367967929e-04 1.2478666156883934e-02  5.9476317852593030e-03 -6.2413024445139140e-04 2.7101022852925576e-02  7.5900063118486431e-03 -1.1456927005048009e-03 4.6706312755925045e-02  9.0641479786360592e-03 -1.7637777929792320e-03 7.0805028938125833e-02  1.0372280495601615e-02 -2.4641084237216572e-03 9.8912444833409038e-02  1.1517713337444157e-02 -3.2348709015470123e-03 1.3055188766988043e-01  1.2505061978939275e-02 -4.0653451124673945e-03 1.6525829569158651e-01  1.3340334981569035e-02 -4.9454906962347472e-03 2.0258203178488352e-01  1.4031025373967311e-02 -5.8658645239633832e-03 2.4209301192893493e-01  1.4586200325135006e-02 -6.8176587440305567e-03 2.8338513104202484e-01  1.5016579983706094e-02 -7.7927856136580324e-03 3.2608094513896391e-01  1.5334602418779543e-02 -8.7839819910182151e-03 3.6983656441154350e-01  1.5554474425123577e-02 -9.7849233143674497e-03 4.1434671321073729e-01  1.5692209227833920e-02 -1.0790343991338481e-02 4.5934991579013001e-01  1.5765659173286668e-02 -1.1796163473333380e-02 5.0463377113239782e-01  1.5794600585514122e-02 -1.2799598812519781e-02 5.5004032378801759e-01  1.5801069951246690e-02 -1.3799129540818644e-02 5.9547201375379422e-01  0.0000000000000000e+00 0.0000000000000000e+00 0.0000000000000000e+00  2.1386139760414856e-03 -6.1494621426027015e-05 3.3710258312377723e-03  4.1507218821137393e-03 -3.1639478503924965e-04 1.2480080930807606e-02  5.9947152161352471e-03 -7.1703569105732213e-04 2.7037918534345728e-02  7.6677434951764279e-03 -1.2312747967569574e-03 4.6574618238100322e-02  9.1704044799751864e-03 -1.8407035443854351e-03 7.0607222021973531e-02  1.0504469695002605e-02 -2.5320567787541545e-03 9.8653427123301815e-02  1.1673138102866378e-02 -3.2939127712847639e-03 1.3023744710868859e-01  1.2681022086757747e-02 -4.1157393389279293e-03 1.6489451166115907e-01  1.3534174547457886e-02 -4.9876182889522025e-03 2.0217502299139209e-01  1.4240164714944539e-02 -5.9002085995274204e-03 2.4164881024695378e-01  1.4808163494745315e-02 -6.8447999283647466e-03 2.8290960060260245e-01  1.5249021534782352e-02 -7.8134024800435489e-03 3.2557971623915061e-01  1.5575334641379493e-02 -8.7988527538386350e-03 3.6931497093199667e-01  1.5801495349553069e-02 -9.7949271612292176e-03 4.1380972937658633e-01  1.5943730465081692e-02 -1.0796460868924249e-02 4.5880209032846447e-01  1.6020128076344380e-02 -1.1799472049964366e-02 5.0407915590380570e-01  1.6050707484037585e-02 -1.2801274659774564e-02 5.4948238524609549e-01  1.6057800213671956e-02 -1.3800310791064531e-02 5.9491344575415939e-01  0.0000000000000000e+00 0.0000000000000000e+00 0.0000000000000000e+00  2.1488658267213145e-03 -1.3470704983069133e-04 3.3605113919490705e-03  4.1825325837123633e-03 -4.0936569405000775e-04 1.2413159580689653e-02  6.0563562642927731e-03 -8.1166766596126353e-04 2.6905891831408194e-02  7.7588176097140860e-03 -1.3202378848332082e-03 4.6378411528955610e-02  9.2886251348069052e-03 -1.9214056999200351e-03 7.0351008518743458e-02  1.0647204470618600e-02 -2.6036918886904689e-03 9.8342596204469029e-02  1.1837701869117631e-02 -3.3563726947998689e-03 1.2987782683547555e-01  1.2864755048173087e-02 -4.1692207010061086e-03 1.6449202609964594e-01  1.3734479975782411e-02 -5.0324853235829640e-03 2.0173552411418905e-01  1.4454537964212073e-02 -5.9369466739269310e-03 2.4117797960240345e-01  1.5034218959959395e-02 -6.8740011523080744e-03 2.8241287659441278e-01  1.5484519543577971e-02 -7.8357625712311297e-03 3.2506222944904278e-01  1.5818208988209684e-02 -8.8151714928301293e-03 3.6878148088317592e-01  1.6049881629885712e-02 -9.8061093194975798e-03 4.1326456048172272e-01  1.6195994784157113e-02 -1.0803515648706966e-02 4.5824906645253127e-01  1.6274891257854324e-02 -1.1803510373117927e-02 5.0352153299826097e-01  1.6306843499466931e-02 -1.2803512049089947e-02 5.4892277364852105e-01  1.6314438064409718e-02 -1.3802072112006328e-02 5.9435363934499308e-01  0.0000000000000000e+00 0.0000000000000000e+00 0.0000000000000000e+00  2.1551969219849240e-03 -2.0630455665573980e-04 3.3055525265149460e-03  4.2155356656398838e-03 -5.0201060538191929e-04 1.2281157101682006e-02  6.1212461338748074e-03 -9.0782336903809499e-04 2.6705264354208520e-02  7.8537170684782713e-03 -1.4115896095298810e-03 4.6116905358222396e-02  9.4106656059560773e-03 -2.0047101654907147e-03 7.0035217262158153e-02  1.0793540339033946e-02 -2.6778495671622789e-03 9.7978701807908242e-02  1.2005569183169506e-02 -3.4211570046338651e-03 1.2947182124057266e-01  1.3051463983484749e-02 -4.2247849729196429e-03 1.6404972533621939e-01  1.3937423188818932e-02 -5.0791819083957157e-03 2.0126252983263115e-01  1.4671209059874466e-02 -5.9752627304669710e-03 2.4067962687584210e-01  1.5262235569459361e-02 -6.9045373702012270e-03 2.8189417651789916e-01  1.5721648866237874e-02 -7.8592274622851892e-03 3.2452780856919322e-01  1.6062394942673384e-02 -8.8323809656787183e-03 3.6823551827088669e-01  1.6299273216748483e-02 -9.8179874528608879e-03 4.1271072310370599e-01  1.6448975691487608e-02 -1.0811094346800569e-02 4.5769044384211921e-01  1.6530108370377973e-02 -1.1807926377050330e-02 5.0296057272629979e-01  1.6563210532570805e-02 -1.2806013014847179e-02 5.4836121046428388e-01  1.6571154713108036e-02 -1.3804130874067882e-02 5.9379237090420500e-01  0.0000000000000000e+00 0.0000000000000000e+00 0.0000000000000000e+00  2.1504877187794656e-03 -2.8466479676990294e-04 3.2041454017209211e-03  4.2427706007812501e-03 -5.9885505568509361e-04 1.2083672602145504e-02  6.1832903352780286e-03 -1.0071502932893989e-03 2.6435828753624671e-02  7.9470182586681374e-03 -1.5057324333620338e-03 4.5789673438181626e-02  9.5317296518161124e-03 -2.0905625085837370e-03 6.9659295513308225e-02  1.0939296258244332e-02 -2.7543098834259148e-03 9.7561165946431189e-02  1.2173155994526638e-02 -3.4879852419210178e-03 1.2901887913588359e-01  1.3238137491293598e-02 -4.2821294645245256e-03 1.6356710747332190e-01  1.4140535613723018e-02 -5.1273972327013509e-03 2.0075559615432070e-01  1.4888216658486204e-02 -6.0148430772754037e-03 2.4015336854823846e-01  1.5490717422893445e-02 -6.9360939974022129e-03 2.8135317717761793e-01  1.5959330755299615e-02 -7.8834825076229253e-03 3.2397618916964094e-01  1.6307175899472798e-02 -8.8501669336145360e-03 3.6767687492217360e-01  1.6549253733566780e-02 -9.8302481928514238e-03 4.1214806188299979e-01  1.6702487754213666e-02 -1.0818885471422211e-02 4.5712611496283256e-01  1.6785749515160917e-02 -1.1812412895958449e-02 5.0239620703451593e-01  1.6819862988798083e-02 -1.2808477238046271e-02 5.4779765523195134e-01  1.6828027694433704e-02 -1.3806166602379892e-02 5.9322962935729051e-01  0.0000000000000000e+00 0.0000000000000000e+00 0.0000000000000000e+00  2.1246800974819421e-03 -3.7704420363463443e-04 3.0466845405733977e-03  4.2525849512455036e-03 -7.0418532339655581e-04 1.1815437456560975e-02  6.2307255849895606e-03 -1.1117148954532603e-03 2.6094951559934344e-02  8.0275157151586916e-03 -1.6035705848041768e-03 4.5394992931089333e-02  9.6415496607246253e-03 -2.1793512662711422e-03 6.9221918371007593e-02  1.1075282073882791e-02 -2.8332328818260048e-03 9.7088910216687890e-02  1.2332384804117873e-02 -3.5569049703272943e-03 1.2851811853765954e-01  1.3417801199269217e-02 -4.3412349188806073e-03 1.6304346593917815e-01  1.4337913474603838e-02 -5.1770635292923408e-03 2.0021417912958037e-01  1.5100679643257366e-02 -6.0555794608939967e-03 2.3959881209594525e-01  1.5715745189724770e-02 -6.9685266779909577e-03 2.8078962560524440e-01  1.6194534486729910e-02 -7.9083505547983910e-03 3.2340724445231561e-01  1.6550324241123661e-02 -8.8683226545762679e-03 3.6710553494799586e-01  1.6798300627033996e-02 -9.8426586796041375e-03 4.1157665444258429e-01  1.6955602013644579e-02 -1.0826634098025841e-02 4.5655623068985285e-01  1.7041352432549641e-02 -1.1816698863552952e-02 5.0182863443639303e-01  1.7076673890393641e-02 -1.2810617968496068e-02 5.4723232254926468e-01  1.7085078464304487e-02 -1.3807857391164894e-02 5.9266561856040378e-01  0.0000000000000000e+00 0.0000000000000000e+00 0.0000000000000000e+00  2.0344583979531971e-03 -4.7767583866251904e-04 2.8285788250609865e-03  4.1964156102721932e-03 -8.1243946874604966e-04 1.1476853935404881e-02  6.2158617277905661e-03 -1.2160806569498151e-03 2.5685849838027852e-02  8.0504507884984321e-03 -1.6998875670865489e-03 4.4936920945366984e-02  9.6993117926790409e-03 -2.2662432643874189e-03 6.8727267537715117e-02  1.1164992198277360e-02 -2.9102681950020160e-03 9.6565959118000533e-02  1.2451135983223937e-02 -3.6240877184930704e-03 1.2797329797978318e-01  1.3562667262993478e-02 -4.3987984482224364e-03 1.6248225099391705e-01  1.4505971832238770e-02 -5.2253884864797828e-03 1.9964140455271981e-01  1.5289032587124230e-02 -6.0951641993679823e-03 2.3901875365397038e-01  1.5921541391677164e-02 -6.9999785863002536e-03 2.8020598855448731e-01  1.6414992016293099e-02 -7.9323851401671194e-03 3.2282311562702826e-01  1.6782755355411967e-02 -8.8857651140731818e-03 3.6652332082766770e-01  1.7040138217882632e-02 -9.8544459951023806e-03 4.1099801417190140e-01  1.7204427910638691e-02 -1.0833817336581869e-02 4.5598200768002389e-01  1.7294928966734794e-02 -1.1820448276315169e-02 5.0125878808692226e-01  1.7333032261234508e-02 -1.2812204694012555e-02 5.4666583341557340e-01  1.7342348929428045e-02 -1.3808994738258218e-02 5.9210062058499369e-01  0.0000000000000000e+00 0.0000000000000000e+00 0.0000000000000000e+00  1.0314994703192763e-03 4.8793292788778145e-05 3.1428952242970221e-03  1.9561283514818889e-03 -1.8619188635112107e-04 1.2323368308622589e-02  2.7952184202920424e-03 -5.4949960005565995e-04 2.7019982855349758e-02  3.5554664364423009e-03 -1.0262746958691732e-03 4.6706797067487343e-02  4.2382611256924028e-03 -1.6011403043037016e-03 7.0885218289674853e-02  4.8444272226538356e-03 -2.2616294250395828e-03 9.9067447953172058e-02  5.3753755311207541e-03 -2.9965270164014003e-03 1.3077567007501473e-01  5.8331916391073371e-03 -3.7952850246213764e-03 1.6554437063354502e-01  6.2206370893488775e-03 -4.6478598280679613e-03 2.0292373733597549e-01  6.5411717650264945e-03 -5.5447169378616068e-03 2.4248364036205156e-01  6.7989877174635524e-03 -6.4768998222316980e-03 2.8381800648206379e-01  6.9990429494470249e-03 -7.4361248834797005e-03 3.2654948497971198e-01  7.1470905134307580e-03 -8.4148884689426249e-03 3.7033433757192763e-01  7.2497016533840291e-03 -9.4065805030827433e-03 4.1486750013638868e-01  7.3142837428268196e-03 -1.0405602775638206e-02 4.5988777302020217e-01  7.3490988641935840e-03 -1.1407488747663256e-02 5.0518310499748520e-01  7.3632977214223762e-03 -1.2409001950232449e-02 5.5059599304986440e-01  7.3667640997850089e-03 -1.3408295449288879e-02 5.9602932083304405e-01  0.0000000000000000e+00 0.0000000000000000e+00 0.0000000000000000e+00  1.0133528273813302e-03 -2.0321874960853641e-05 3.2287266701513766e-03  1.9869515497457114e-03 -2.4218382418858504e-04 1.2390105295918805e-02  2.8595914827083302e-03 -6.0035384268853471e-04 2.7020455646245795e-02  3.6504418975893218e-03 -1.0721053623563613e-03 4.6633427905080196e-02  4.3607713730103755e-03 -1.6419853191527404e-03 7.0739685662626173e-02  4.9915495842196194e-03 -2.2975576524522823e-03 9.8854529393505947e-02  5.5442902957249709e-03 -3.0276577555147862e-03 1.3050124351930720e-01  6.0211598034906897e-03 -3.8217850438832619e-03 1.6521471022497455e-01  6.4250020637941010e-03 -4.6699423410760804e-03 2.0254523072234221e-01  6.7593747680017345e-03 -5.5626427714932161e-03 2.4206265456118164e-01  7.0285896695973030e-03 -6.4909793109173691e-03 2.8336080601129565e-01  7.2377496714781352e-03 -7.4467197322300848e-03 3.2606216687066070e-01  7.3927799233740469e-03 -8.4224133028474955e-03 3.6982277021012938e-01  7.5004523521621435e-03 -9.4115039974241033e-03 4.1433726096561291e-01  7.5684039411059211e-03 -1.0408448451779479e-02 4.5934408224585177e-01  7.6051521947638687e-03 -1.1408836118535796e-02 5.0463075000211322e-01  7.6201371979544063e-03 -1.2409486507133510e-02 5.5003921495938901e-01  7.6238605501662239e-03 -1.3408469963363159e-02 5.9547164388063634e-01  0.0000000000000000e+00 0.0000000000000000e+00 0.0000000000000000e+00  1.0240904982693419e-03 -6.6646456136003411e-05 3.2631394700872486e-03  2.0256407778581156e-03 -2.9232713511212732e-04 1.2387479908737271e-02  2.9297571311604812e-03 -6.4843186705503767e-04 2.6955340069709923e-02  3.7498007221211851e-03 -1.1162236703092369e-03 4.6500484463274296e-02  4.4866905576728408e-03 -1.6815893837923493e-03 7.0540968097967616e-02  5.1412926126432491e-03 -2.3325219480630510e-03 9.8594787464644978e-02  5.7151359418351963e-03 -3.0580311887408282e-03 1.3018621011599546e-01  6.2104408890382773e-03 -3.8477039357955596e-03 1.6485044268405452e-01  6.6301292412420821e-03 -4.6916025734257084e-03 2.0213783684758629e-01  6.9778602952718519e-03 -5.5802915308944007e-03 2.4161815873998338e-01  7.2580725683903590e-03 -6.5049134628286549e-03 2.8288506547201170e-01  7.4760221791780263e-03 -7.4572863243962716e-03 3.2556080452009584e-01  7.6378151044686725e-03 -8.4300105590783651e-03 3.6930111162306650e-01  7.7504326603766585e-03 -9.4165820912195559e-03 4.1380027094519922e-01  7.8217497639296689e-03 -1.0411509634265580e-02 4.5879629889432394e-01  7.8605462122435486e-03 -1.1410435250124449e-02 5.0407621369919831e-01  7.8765428962696594e-03 -1.2410237627314611e-02 5.4948138080618369e-01  7.8806419998876092e-03 -1.3408978666421713e-02 5.9491322196260865e-01  0.0000000000000000e+00 0.0000000000000000e+00 0.0000000000000000e+00  1.0433170534754424e-03 -1.0551319002098970e-04 3.2501078496037657e-03  2.0714208070417772e-03 -3.3931067670743130e-04 1.2317533633386812e-02  3.0059165432288265e-03 -6.9584194005740236e-04 2.6821173334109164e-02  3.8545053890072841e-03 -1.1607337442598917e-03 4.6302747693636660e-02  4.6173271326890942e-03 -1.7219252622764042e-03 7.0283560714168178e-02  5.2951280612596480e-03 -2.3682987480801443e-03 9.8282972775544195e-02  5.8894658964774105e-03 -3.0892050752805936e-03 1.2982576354655567e-01  6.4026234636142916e-03 -3.8743780837075270e-03 1.6444726549246705e-01  6.8376073795405178e-03 -4.7139613428118458e-03 2.0169776894455049e-01  7.1981852743747340e-03 -5.5985788404642901e-03 2.4114687287159403e-01  7.4889292360084568e-03 -6.5194262976690370e-03 2.8238799163906503e-01  7.7152555489913340e-03 -7.4683734432555975e-03 3.2504306419395135e-01  7.8834580820396401e-03 -8.4380728245404598e-03 3.6876745406629252e-01  8.0007346905634196e-03 -9.4220729406771474e-03 4.1325500896582684e-01  8.0752058574773290e-03 -1.0414934712210907e-02 4.5824324333226879e-01  8.1159225757312953e-03 -1.1412351864812946e-02 5.0351860661749825e-01  8.1328862837493441e-03 -1.2411265293899836e-02 5.4892182080328678e-01  8.1373244781562399e-03 -1.3409815939972623e-02 5.9435350829731848e-01  0.0000000000000000e+00 0.0000000000000000e+00 0.0000000000000000e+00  1.0613324236591036e-03 -1.4391491496023307e-04 3.1942244637687303e-03  2.1184421727537769e-03 -3.8631184002728365e-04 1.2183625155212987e-02  3.0838770736834839e-03 -7.4427687053270884e-04 2.6618708257023789e-02  3.9611687420974349e-03 -1.2067086019671011e-03 4.6039741103386392e-02  4.7498477758733306e-03 -1.7638205058763837e-03 6.9966528178034670e-02  5.4506994460003814e-03 -2.4055688147230302e-03 9.7918025172757842e-02  6.0653593923079702e-03 -3.1217436308441748e-03 1.2941885722982369e-01  6.5961899120337876e-03 -3.9022668536482482e-03 1.6400419908360850e-01  7.0462895781760486e-03 -4.7373801426448866e-03 2.0122413371633274e-01  7.4195381105209663e-03 -5.6177744575408462e-03 2.4064799553673372e-01  7.7206436530506501e-03 -6.5347023969434892e-03 2.8186887488951595e-01  7.9551846919645730e-03 -7.4800879451155889e-03 3.2450832529736251e-01  8.1296448928262870e-03 -8.4466377767565097e-03 3.6822126159925656e-01  8.2514405763327824e-03 -9.4279548719596925e-03 4.1270101804793347e-01  8.3289404050536000e-03 -1.0418654155960995e-02 4.5768453021213301e-01  8.3714726426235286e-03 -1.1414481776649735e-02 5.0295760456264971e-01  8.3893263224319899e-03 -1.2412443383571071e-02 5.4836025326022741e-01  8.3940319685742882e-03 -1.3410834213037069e-02 5.9379227008027968e-01  0.0000000000000000e+00 0.0000000000000000e+00 0.0000000000000000e+00  1.0741907338373156e-03 -1.8714485004056735e-04 3.0942553976040107e-03  2.1627029237000642e-03 -4.3643527254372456e-04 1.1985750490153104e-02  3.1603037598443764e-03 -7.9531329647591746e-04 2.6348326086249898e-02  4.0668163506739430e-03 -1.2550340805741098e-03 4.5711556550242616e-02  4.8816239295580068e-03 -1.8078674519775809e-03 6.9589743179208435e-02  5.6057244077938016e-03 -2.4447803046465278e-03 9.7499721585576724e-02  6.2408736771479897e-03 -3.1560027393945683e-03 1.2896523763397230e-01  6.7895238613367749e-03 -3.9316531158126384e-03 1.6352098907644386e-01  7.2548680317253283e-03 -4.7620770290953971e-03 2.0071668911142049e-01  7.6408977924763890e-03 -5.6380362260419464e-03 2.4012130340105009e-01  7.9524559609216484e-03 -6.5508430722858845e-03 2.8132751431356834e-01  8.1952813447813948e-03 -7.4924783705869278e-03 3.2395641199985448e-01  8.3760453365649586e-03 -8.4557054285678522e-03 3.6766238565605325e-01  8.5023806087450131e-03 -9.4341843293229335e-03 4.1213817867025582e-01  8.5829023069375864e-03 -1.0422586972393724e-02 4.5712006983592618e-01  8.6272188229157467e-03 -1.1416714285679206e-02 5.0239314513933508e-01  8.6459203368142133e-03 -1.2413637516669013e-02 5.4779663613102658e-01  8.6508296426842449e-03 -1.3411863000357755e-02 5.9322949107109224e-01  0.0000000000000000e+00 0.0000000000000000e+00 0.0000000000000000e+00  1.0788954979137635e-03 -2.4159606778337316e-04 2.9416286484893273e-03  2.1998720474439870e-03 -4.9388046460807254e-04 1.1719330657111067e-02  3.2305986260558390e-03 -8.5172704331916850e-04 2.6008132327761342e-02  4.1669488316541737e-03 -1.3076930771153386e-03 4.5317155770542329e-02  5.0084819925516897e-03 -1.8556099382486468e-03 6.9152468248933077e-02  5.7564448160411430e-03 -2.4871989587305931e-03 9.7027474991503326e-02  6.4126936900527542e-03 -3.1930365088925789e-03 1.2846442618363779e-01  6.9797550442407914e-03 -3.9634085037976658e-03 1.6299725176103502e-01  7.4609066779928344e-03 -4.7887570858829486e-03 2.0017514041669174e-01  7.8602444927074570e-03 -5.6599146461334847e-03 2.3956658672670975e-01  8.1827389341836056e-03 -6.5682558341611337e-03 2.8076378114457295e-01  8.4342821259152465e-03 -7.5058218713607919e-03 3.2338727188355249e-01  8.6217260984549661e-03 -8.4654368109289453e-03 3.6709084465037189e-01  8.7529126976286595e-03 -9.4408