<?xml version="1.0"?>
<VTKFile type="UnstructuredGrid"  version="0.1"  >
<UnstructuredGrid>
<Piece  NumberOfPoints="760" NumberOfCells="3024">
<Points>
<DataArray  type="Float64"  NumberOfComponents="3"  format="ascii">0 0 0  0.05555555555555555 0 0  0.1111111111111111 0 0  0.1666666666666667 0 0  0.2222222222222222 0 0  0.2777777777777778 0 0  0.3333333333333333 0 0  0.3888888888888889 0 0  0.4444444444444444 0 0  0.5 0 0  0.5555555555555556 0 0  0.6111111111111112 0 0  0.6666666666666666 0 0  0.7222222222222222 0 0  0.7777777777777778 0 0  0.8333333333333334 0 0  0.8888888888888888 0 0  0.9444444444444444 0 0  1 0 0  0 0.01428571428571429 0  0.05555555555555555 0.01428571428571429 0  0.1111111111111111 0.01428571428571429 0  0.1666666666666667 0.01428571428571429 0  0.2222222222222222 0.01428571428571429 0  0.2777777777777778 0.01428571428571429 0  0.3333333333333333 0.01428571428571429 0  0.3888888888888889 0.01428571428571429 0  0.4444444444444444 0.01428571428571429 0  0.5 0.01428571428571429 0  0.5555555555555556 0.01428571428571429 0  0.6111111111111112 0.01428571428571429 0  0.6666666666666666 0.01428571428571429 0  0.7222222222222222 0.01428571428571429 0  0.7777777777777778 0.01428571428571429 0  0.8333333333333334 0.01428571428571429 0  0.8888888888888888 0.01428571428571429 0  0.9444444444444444 0.01428571428571429 0  1 0.01428571428571429 0  0 0.02857142857142857 0  0.05555555555555555 0.02857142857142857 0  0.1111111111111111 0.02857142857142857 0  0.1666666666666667 0.02857142857142857 0  0.2222222222222222 0.02857142857142857 0  0.2777777777777778 0.02857142857142857 0  0.3333333333333333 0.02857142857142857 0  0.3888888888888889 0.02857142857142857 0  0.4444444444444444 0.02857142857142857 0  0.5 0.02857142857142857 0  0.5555555555555556 0.02857142857142857 0  0.6111111111111112 0.02857142857142857 0  0.6666666666666666 0.02857142857142857 0  0.7222222222222222 0.02857142857142857 0  0.7777777777777778 0.02857142857142857 0  0.8333333333333334 0.02857142857142857 0  0.8888888888888888 0.02857142857142857 0  0.9444444444444444 0.02857142857142857 0  1 0.02857142857142857 0  0 0.04285714285714286 0  0.05555555555555555 0.04285714285714286 0  0.1111111111111111 0.04285714285714286 0  0.1666666666666667 0.04285714285714286 0  0.2222222222222222 0.04285714285714286 0  0.2777777777777778 0.04285714285714286 0  0.3333333333333333 0.04285714285714286 0  0.3888888888888889 0.04285714285714286 0  0.4444444444444444 0.04285714285714286 0  0.5 0.04285714285714286 0  0.5555555555555556 0.04285714285714286 0  0.6111111111111112 0.04285714285714286 0  0.6666666666666666 0.04285714285714286 0  0.7222222222222222 0.04285714285714286 0  0.7777777777777778 0.04285714285714286 0  0.8333333333333334 0.04285714285714286 0  0.8888888888888888 0.04285714285714286 0  0.9444444444444444 0.04285714285714286 0  1 0.04285714285714286 0  0 0.05714285714285715 0  0.05555555555555555 0.05714285714285715 0  0.1111111111111111 0.05714285714285715 0  0.1666666666666667 0.05714285714285715 0  0.2222222222222222 0.05714285714285715 0  0.2777777777777778 0.05714285714285715 0  0.3333333333333333 0.05714285714285715 0  0.3888888888888889 0.05714285714285715 0  0.4444444444444444 0.05714285714285715 0  0.5 0.05714285714285715 0  0.5555555555555556 0.05714285714285715 0  0.6111111111111112 0.05714285714285715 0  0.6666666666666666 0.05714285714285715 0  0.7222222222222222 0.05714285714285715 0  0.7777777777777778 0.05714285714285715 0  0.8333333333333334 0.05714285714285715 0  0.8888888888888888 0.05714285714285715 0  0.9444444444444444 0.05714285714285715 0  1 0.05714285714285715 0  0 0.07142857142857142 0  0.05555555555555555 0.07142857142857142 0  0.1111111111111111 0.07142857142857142 0  0.1666666666666667 0.07142857142857142 0  0.2222222222222222 0.07142857142857142 0  0.2777777777777778 0.07142857142857142 0  0.3333333333333333 0.07142857142857142 0  0.3888888888888889 0.07142857142857142 0  0.4444444444444444 0.07142857142857142 0  0.5 0.07142857142857142 0  0.5555555555555556 0.07142857142857142 0  0.6111111111111112 0.07142857142857142 0  0.6666666666666666 0.07142857142857142 0  0.7222222222222222 0.07142857142857142 0  0.7777777777777778 0.07142857142857142 0  0.8333333333333334 0.07142857142857142 0  0.8888888888888888 0.07142857142857142 0  0.9444444444444444 0.07142857142857142 0  1 0.07142857142857142 0  0 0.08571428571428573 0  0.05555555555555555 0.08571428571428573 0  0.1111111111111111 0.08571428571428573 0  0.1666666666666667 0.08571428571428573 0  0.2222222222222222 0.08571428571428573 0  0.2777777777777778 0.08571428571428573 0  0.3333333333333333 0.08571428571428573 0  0.3888888888888889 0.08571428571428573 0  0.4444444444444444 0.08571428571428573 0  0.5 0.08571428571428573 0  0.5555555555555556 0.08571428571428573 0  0.6111111111111112 0.08571428571428573 0  0.6666666666666666 0.08571428571428573 0  0.7222222222222222 0.08571428571428573 0  0.7777777777777778 0.08571428571428573 0  0.8333333333333334 0.08571428571428573 0  0.8888888888888888 0.08571428571428573 0  0.9444444444444444 0.08571428571428573 0  1 0.08571428571428573 0  0 0.1 0  0.05555555555555555 0.1 0  0.1111111111111111 0.1 0  0.1666666666666667 0.1 0  0.2222222222222222 0.1 0  0.2777777777777778 0.1 0  0.3333333333333333 0.1 0  0.3888888888888889 0.1 0  0.4444444444444444 0.1 0  0.5 0.1 0  0.5555555555555556 0.1 0  0.6111111111111112 0.1 0  0.6666666666666666 0.1 0  0.7222222222222222 0.1 0  0.7777777777777778 0.1 0  0.8333333333333334 0.1 0  0.8888888888888888 0.1 0  0.9444444444444444 0.1 0  1 0.1 0  0 0 0.01  0.05555555555555555 0 0.01  0.1111111111111111 0 0.01  0.1666666666666667 0 0.01  0.2222222222222222 0 0.01  0.2777777777777778 0 0.01  0.3333333333333333 0 0.01  0.3888888888888889 0 0.01  0.4444444444444444 0 0.01  0.5 0 0.01  0.5555555555555556 0 0.01  0.6111111111111112 0 0.01  0.6666666666666666 0 0.01  0.7222222222222222 0 0.01  0.7777777777777778 0 0.01  0.8333333333333334 0 0.01  0.8888888888888888 0 0.01  0.9444444444444444 0 0.01  1 0 0.01  0 0.01428571428571429 0.01  0.05555555555555555 0.01428571428571429 0.01  0.1111111111111111 0.01428571428571429 0.01  0.1666666666666667 0.01428571428571429 0.01  0.2222222222222222 0.01428571428571429 0.01  0.2777777777777778 0.01428571428571429 0.01  0.3333333333333333 0.01428571428571429 0.01  0.3888888888888889 0.01428571428571429 0.01  0.4444444444444444 0.01428571428571429 0.01  0.5 0.01428571428571429 0.01  0.5555555555555556 0.01428571428571429 0.01  0.6111111111111112 0.01428571428571429 0.01  0.6666666666666666 0.01428571428571429 0.01  0.7222222222222222 0.01428571428571429 0.01  0.7777777777777778 0.01428571428571429 0.01  0.8333333333333334 0.01428571428571429 0.01  0.8888888888888888 0.01428571428571429 0.01  0.9444444444444444 0.01428571428571429 0.01  1 0.01428571428571429 0.01  0 0.02857142857142857 0.01  0.05555555555555555 0.02857142857142857 0.01  0.1111111111111111 0.02857142857142857 0.01  0.1666666666666667 0.02857142857142857 0.01  0.2222222222222222 0.02857142857142857 0.01  0.2777777777777778 0.02857142857142857 0.01  0.3333333333333333 0.02857142857142857 0.01  0.3888888888888889 0.02857142857142857 0.01  0.4444444444444444 0.02857142857142857 0.01  0.5 0.02857142857142857 0.01  0.5555555555555556 0.02857142857142857 0.01  0.6111111111111112 0.02857142857142857 0.01  0.6666666666666666 0.02857142857142857 0.01  0.7222222222222222 0.02857142857142857 0.01  0.7777777777777778 0.02857142857142857 0.01  0.8333333333333334 0.02857142857142857 0.01  0.8888888888888888 0.02857142857142857 0.01  0.9444444444444444 0.02857142857142857 0.01  1 0.02857142857142857 0.01  0 0.04285714285714286 0.01  0.05555555555555555 0.04285714285714286 0.01  0.1111111111111111 0.04285714285714286 0.01  0.1666666666666667 0.04285714285714286 0.01  0.2222222222222222 0.04285714285714286 0.01  0.2777777777777778 0.04285714285714286 0.01  0.3333333333333333 0.04285714285714286 0.01  0.3888888888888889 0.04285714285714286 0.01  0.4444444444444444 0.04285714285714286 0.01  0.5 0.04285714285714286 0.01  0.5555555555555556 0.04285714285714286 0.01  0.6111111111111112 0.04285714285714286 0.01  0.6666666666666666 0.04285714285714286 0.01  0.7222222222222222 0.04285714285714286 0.01  0.7777777777777778 0.04285714285714286 0.01  0.8333333333333334 0.04285714285714286 0.01  0.8888888888888888 0.04285714285714286 0.01  0.9444444444444444 0.04285714285714286 0.01  1 0.04285714285714286 0.01  0 0.05714285714285715 0.01  0.05555555555555555 0.05714285714285715 0.01  0.1111111111111111 0.05714285714285715 0.01  0.1666666666666667 0.05714285714285715 0.01  0.2222222222222222 0.05714285714285715 0.01  0.2777777777777778 0.05714285714285715 0.01  0.3333333333333333 0.05714285714285715 0.01  0.3888888888888889 0.05714285714285715 0.01  0.4444444444444444 0.05714285714285715 0.01  0.5 0.05714285714285715 0.01  0.5555555555555556 0.05714285714285715 0.01  0.6111111111111112 0.05714285714285715 0.01  0.6666666666666666 0.05714285714285715 0.01  0.7222222222222222 0.05714285714285715 0.01  0.7777777777777778 0.05714285714285715 0.01  0.8333333333333334 0.05714285714285715 0.01  0.8888888888888888 0.05714285714285715 0.01  0.9444444444444444 0.05714285714285715 0.01  1 0.05714285714285715 0.01  0 0.07142857142857142 0.01  0.05555555555555555 0.07142857142857142 0.01  0.1111111111111111 0.07142857142857142 0.01  0.1666666666666667 0.07142857142857142 0.01  0.2222222222222222 0.07142857142857142 0.01  0.2777777777777778 0.07142857142857142 0.01  0.3333333333333333 0.07142857142857142 0.01  0.3888888888888889 0.07142857142857142 0.01  0.4444444444444444 0.07142857142857142 0.01  0.5 0.07142857142857142 0.01  0.5555555555555556 0.07142857142857142 0.01  0.6111111111111112 0.07142857142857142 0.01  0.6666666666666666 0.07142857142857142 0.01  0.7222222222222222 0.07142857142857142 0.01  0.7777777777777778 0.07142857142857142 0.01  0.8333333333333334 0.07142857142857142 0.01  0.8888888888888888 0.07142857142857142 0.01  
[...]
<PointData  Vectors="f_33"> 
<DataArray  type="Float64"  Name="f_33"  NumberOfComponents="3" format="ascii">0.0000000000000000e+00 0.0000000000000000e+00 0.0000000000000000e+00  -2.2395962195917952e-03 -1.0711941554406566e-04 -3.2856488115717551e-03  -4.1767236811804586e-03 2.2292297812725415e-04 -1.2609513238265823e-02  -5.9444285447686519e-03 7.5489550276884912e-04 -2.7546439578376502e-02  -7.5460331929969272e-03 1.4452196936024118e-03 -4.7565167952444462e-02  -8.9841903104858536e-03 2.2687857451001089e-03 -7.2162657325458873e-02  -1.0260925871887110e-02 3.2073533347181543e-03 -1.0084626024431811e-01  -1.1379271307841818e-02 4.2451903330518971e-03 -1.3313279771688241e-01  -1.2343526237079669e-02 5.3677331489296581e-03 -1.6855077997279411e-01  -1.3159351574379330e-02 6.5611961178384439e-03 -2.0664377163775272e-01  -1.3833870267455981e-02 7.8125191990217648e-03 -2.4697439768626708e-01  -1.4375772910899472e-02 9.1094428006213406e-03 -2.8912880938602276e-01  -1.4795415571946744e-02 1.0440634199873951e-02 -3.3272151320773097e-01  -1.5104903992967995e-02 1.1795837335420655e-02 -3.7740049450275820e-01  -1.5318162155857795e-02 1.3166035133409923e-02 -4.2285257887846650e-01  -1.5450985941663782e-02 1.4543620799080816e-02 -4.6880897959125722e-01  -1.5521094389894541e-02 1.5922576741636673e-02 -5.1505098616264622e-01  -1.5548219494504618e-02 1.7298651564867009e-02 -5.6141581125163087e-01  -1.5554025027395018e-02 1.8669663546370396e-02 -6.0780318731443284e-01  0.0000000000000000e+00 0.0000000000000000e+00 0.0000000000000000e+00  -2.1507722560084224e-03 2.7686770757945790e-06 -3.3833498095157122e-03  -4.1470466237243072e-03 3.2020438044691625e-04 -1.2679147503882016e-02  -5.9664355790984003e-03 8.4293987672008738e-04 -2.7547888498178554e-02  -7.6160113642070957e-03 1.5243659477237432e-03 -4.7491266698002077e-02  -9.0981462916261482e-03 2.3391838217297796e-03 -7.2015250871152930e-02  -1.0414879768484011e-02 3.2691686270665773e-03 -1.0063020561243678e-01  -1.1569278515908093e-02 4.2986500710836071e-03 -1.3285403055181672e-01  -1.2565676760088046e-02 5.4131365658098649e-03 -1.6821563021789013e-01  -1.3409780007326115e-02 6.5989203038142995e-03 -2.0625868930817265e-01  -1.4108776383169215e-02 7.8430249105043912e-03 -2.4654582303290090e-01  -1.4671448786592921e-02 9.1332798917290771e-03 -2.8866309320018646e-01  -1.5108277058230354e-02 1.0458446304012246e-02 -3.3222485252633427e-01  -1.5431525522201610e-02 1.1808365616325497e-02 -3.7687887082787075e-01  -1.5655314303569937e-02 1.3174120916349830e-02 -4.2231169396641266e-01  -1.5795674394455811e-02 1.4548206829667927e-02 -4.6825418579448413e-01  -1.5870594448594740e-02 1.5924706968391288e-02 -5.1448720537857995e-01  -1.5900120586721838e-02 1.7299459063601801e-02 -5.6084741658329906e-01  -1.5906711325160600e-02 1.8670079713098777e-02 -6.0723372224394301e-01  0.0000000000000000e+00 0.0000000000000000e+00 0.0000000000000000e+00  -2.1571700240952275e-03 8.7046022803256834e-05 -3.4229256823629416e-03  -4.1863940164208755e-03 4.1613514311331497e-04 -1.2681768237463297e-02  -6.0475699648809200e-03 9.3587995608977758e-04 -2.7484886139681149e-02  -7.7377735640255588e-03 1.6100875997667433e-03 -4.7358415516319384e-02  -9.2574307774331843e-03 2.4163205199889937e-03 -7.1815012442404860e-02  -1.0608122058004366e-02 3.3373788616783309e-03 -1.0036750850029411e-01  -1.1792818576603494e-02 4.3579873725895987e-03 -1.3253470956841201e-01  -1.2815875024031639e-02 5.4638426979952753e-03 -1.6784582527876063e-01  -1.3683072326318107e-02 6.6413593255875971e-03 -2.0584459213688006e-01  -1.4401714141279049e-02 7.8776638738760046e-03 -2.4609355114824824e-01  -1.4980735549767680e-02 9.1606853343259922e-03 -2.8817860905717757e-01  -1.5430805281264301e-02 1.0479285856394146e-02 -3.3171389679031665e-01  -1.5764414503160837e-02 1.1823410806325924e-02 -3.7634689821263950e-01  -1.5995949600548683e-02 1.3184249454803530e-02 -4.2176380737858438e-01  -1.6141747668488207e-02 1.4554403123500852e-02 -4.6769506681673212e-01  -1.6220137844780793e-02 1.5928060759967017e-02 -5.1392103809425338e-01  -1.6251525880497900e-02 1.7301164628283600e-02 -5.6027779239089859e-01  -1.6258800078680878e-02 1.8671286565575065e-02 -6.0666343876185969e-01  0.0000000000000000e+00 0.0000000000000000e+00 0.0000000000000000e+00  -2.1788228103961234e-03 1.6060242971099284e-04 -3.4134696041202201e-03  -4.2412868539933018e-03 5.0975331710456943e-04 -1.2614944743864234e-02  -6.1432016614862296e-03 1.0313598983173388e-03 -2.7351767236998850e-02  -7.8728189648151758e-03 1.6999621745148205e-03 -4.7159877817859991e-02  -9.4286262397436683e-03 2.4979380105247481e-03 -7.1555245209593887e-02  -1.0811855467977001e-02 3.4099056757254985e-03 -1.0005194473578549e-01  -1.2025440945133531e-02 4.4212969465783824e-03 -1.3216923572904679e-01  -1.3073786518749885e-02 5.5181158482332064e-03 -1.6743643568993341e-01  -1.3962767510729397e-02 6.6869458317328021e-03 -2.0539722028231069e-01  -1.4699819370760996e-02 7.9150364366279997e-03 -2.4561397105822758e-01  -1.5294045219994258e-02 9.1904261980264215e-03 -2.8767236185608824e-01  -1.5756318847992716e-02 1.0502084857207607e-02 -3.3118622449759638e-01  -1.6099374906105270e-02 1.1840066984402394e-02 -3.7580267807041323e-01  -1.6337883160656336e-02 1.3195672989165869e-02 -4.2120748444361789e-01  -1.6488504921354299e-02 1.4561615511847585e-02 -4.6713058430879600e-01  -1.6569929875749338e-02 1.5932192570417780e-02 -5.1335176494586432e-01  -1.6602931860114360e-02 1.7303459174188199e-02 -5.5970643856697289e-01  -1.6610777303498803e-02 1.8673098110959817e-02 -6.0609187144126575e-01  0.0000000000000000e+00 0.0000000000000000e+00 0.0000000000000000e+00  -2.1962541882280641e-03 2.3340027971643308e-04 -3.3588245374769270e-03  -4.2972288379025062e-03 6.0390755582853965e-04 -1.2481941583970504e-02  -6.2420296308167015e-03 1.1291718130820195e-03 -2.7148827369476287e-02  -8.0116597630567853e-03 1.7929738111109861e-03 -4.6894823465325960e-02  -9.6036177888941220e-03 2.5828361818845992e-03 -7.1234731987837321e-02  -1.1019169675832356e-02 3.4855595178747531e-03 -9.9682219094699209e-02  -1.2261349298084577e-02 4.4874613194915347e-03 -1.3175636126830009e-01  -1.3334658890090704e-02 5.5749297874081978e-03 -1.6698630908993706e-01  -1.4245087670981732e-02 6.7347497702532292e-03 -2.0491553341813074e-01  -1.5000211733001067e-02 7.9543082424572264e-03 -2.4510615835707850e-01  -1.5609307187164924e-02 9.2217608785576353e-03 -2.8714354147977061e-01  -1.6083456504853048e-02 1.0526190059709539e-02 -3.3064113539620843e-01  -1.6435641103855255e-02 1.1857763775137503e-02 -3.7524561376583626e-01  -1.6680817491106531e-02 1.3207897686114554e-02 -4.2064222429412790e-01  -1.6835975489491235e-02 1.4569420105941809e-02 -4.6656032340247955e-01  -1.6920174085949299e-02 1.5936741931836369e-02 -5.1277904423439002e-01  -1.6954568886090284e-02 1.7306037292397602e-02 -5.5913306708058785e-01  -1.6962832514248759e-02 1.8675225780626165e-02 -6.0551879104437933e-01  0.0000000000000000e+00 0.0000000000000000e+00 0.0000000000000000e+00  -2.2025110727495814e-03 3.1393268764017386e-04 -3.2569460709557644e-03  -4.3473672482171521e-03 7.0320108852782361e-04 -1.2282326761073810e-02  -6.3380428166234350e-03 1.2309953399858543e-03 -2.6875842555442887e-02  -8.1489540681729013e-03 1.8895332632252436e-03 -4.6562807110749067e-02  -9.7776906129861691e-03 2.6709613983985619e-03 -7.0852899844758302e-02  -1.1225964862608063e-02 3.5641188638630057e-03 -9.9257733852330512e-02  -1.2497040637043618e-02 4.5561974782155467e-03 -1.3129551646526547e-01  -1.3595561448619545e-02 5.6339786849921398e-03 -1.6649492662259935e-01  -1.4527644268355368e-02 6.7844566135938358e-03 -2.0439907235026764e-01  -1.5301008682271057e-02 7.9951611920579310e-03 -2.4456971617808013e-01  -1.5925102255235531e-02 9.2543695533868001e-03 -2.8659181329100009e-01  -1.6411212883355182e-02 1.0551280629551119e-02 -3.3007835553706721e-01  -1.6772564870171227e-02 1.1876179723037736e-02 -3.7467548950607804e-01  -1.7024397421386131e-02 1.3220601915788881e-02 -4.2006786577063532e-01  -1.7184025253743525e-02 1.4577496199027986e-02 -4.6598417241315010e-01  -1.7270878932023233e-02 1.5941391903404347e-02 -5.1220280513075744e-01  -1.7306516146571329e-02 1.7308588816505092e-02 -5.5855763627949950e-01  -1.7315059896697210e-02 1.8677338536174124e-02 -6.0494418823380258e-01  0.0000000000000000e+00 0.0000000000000000e+00 0.0000000000000000e+00  -2.1876981780749203e-03 4.0959236167723592e-04 -3.0980508387211990e-03  -4.3801314754052254e-03 8.1199839929407152e-04 -1.2010694720529260e-02  -6.4195103779538408e-03 1.3389439147808338e-03 -2.6530093011076183e-02  -8.2735139850214998e-03 1.9905715779225683e-03 -4.6162037833921851e-02  -9.9405913418141988e-03 2.7627196344843022e-03 -7.0408364707233828e-02  -1.1423064797187559e-02 3.6457565777835385e-03 -9.8777358358818013e-02  -1.2724452411912888e-02 4.6275627691635037e-03 -1.3078577358585192e-01  -1.3849536721079391e-02 5.6952504977459987e-03 -1.6596154246836012e-01  -1.4804553116037698e-02 6.8360033085817177e-03 -2.0384726049039026e-01  -1.5597351915277731e-02 8.0374891820518442e-03 -2.4400422603439056e-01  -1.6237537349937787e-02 9.2881073715863384e-03 -2.8601690498576482e-01  -1.6736586719377080e-02 1.0577176234007281e-02 -3.2949774520167513e-01  -1.7107950408190620e-02 1.1895102253153194e-02 -3.7409228248065601e-01  -1.7367133001100304e-02 1.3233544459512300e-02 -4.1948448491647122e-01  -1.7531756231664336e-02 1.4585578246486494e-02 -4.6540228503011483e-01  -1.7621608072321462e-02 1.5945859328606059e-02 -5.1162325197694725e-01  -1.7658664979736130e-02 1.7310814949755025e-02 -5.5798036827391129e-01  -1.7667495057915698e-02 1.8679100223601683e-02 -6.0436827564228190e-01  0.0000000000000000e+00 0.0000000000000000e+00 0.0000000000000000e+00  -2.1084398010128408e-03 5.1454894243745997e-04 -2.8773967620771969e-03  -4.3466622100727572e-03 9.2466901019634380e-04 -1.1667255862948379e-02  -6.4383769938436419e-03 1.4475168298157869e-03 -2.6114664707338951e-02  -8.3401925258786425e-03 2.0908049073311472e-03 -4.5696476655276007e-02  -1.0051117740552751e-02 2.8532078195939261e-03 -6.9905236416392041e-02  -1.1573585742925078e-02 3.7260520377099364e-03 -9.8245065293406653e-02  -1.2911104158257691e-02 4.6976597457908933e-03 -1.3023085731068421e-01  -1.4068459915469416e-02 5.7553759164319044e-03 -1.6538958947381119e-01  -1.5051922665457214e-02 6.8865347821721289e-03 -2.0326322111846490e-01  -1.5869405783561483e-02 8.0789264090442032e-03 -2.4341249466162315e-01  -1.6530606294877820e-02 9.3210648526399417e-03 -2.8542130492625567e-01  -1.7047126404679380e-02 1.0602383839787665e-02 -3.2890147577949541e-01  -1.7432576139008536e-02 1.1913408213245014e-02 -3.7349785118184098e-01  -1.7702656921747686e-02 1.3245918706411314e-02 -4.1889363397265600e-01  -1.7875227133896856e-02 1.4593115745001483e-02 -4.6481591639362008e-01  -1.7970355446308855e-02 1.5949786122305850e-02 -5.1104135260337846e-01  -1.8010404652533271e-02 1.7312470686310932e-02 -5.5740190899891007e-01  -1.8020193779408999e-02 1.8680288339145035e-02 -6.0379134533213807e-01  0.0000000000000000e+00 0.0000000000000000e+00 0.0000000000000000e+00  -1.0078380610390035e-03 -1.9954965108012227e-05 -3.1910912692385846e-03  -1.9089734323331554e-03 2.8862261705668390e-04 -1.2522087596077173e-02  -2.7265976494024410e-03 7.6993502307080462e-04 -2.7466088990871863e-02  -3.4679692840431952e-03 1.4055254318834655e-03 -4.7492171511983747e-02  -4.1345238048840502e-03 2.1760613907659040e-03 -7.2097080704152758e-02  -4.7269774987176707e-03 3.0651673179163679e-03 -1.0078806338447735e-01  -5.2465815917373546e-03 4.0577881656760724e-03 -1.3308185712163056e-01  -5.6952285739279495e-03 5.1396155460995572e-03 -1.6850690215953068e-01  -6.0754593020424233e-03 6.2969484046495987e-03 -2.0660669630668335e-01  -6.3904925367596855e-03 7.5167288310950264e-03 -2.4694379558371629e-01  -6.6442676240152029e-03 8.7866471778698663e-03 -2.8910427839540975e-01  -6.8414878972974970e-03 1.0095277383433087e-02 -3.3270257423649124e-01  -6.9876593240711573e-03 1.1432227712927919e-02 -3.7738658775974077e-01  -7.0891224449090825e-03 1.2788300932393566e-02 -4.2284306072015382e-01  -7.1530778469690044e-03 1.4155661401371819e-02 -4.6880311988324191e-01  -7.1876109718245380e-03 1.5528005217886418e-02 -5.1504796492049487e-01  -7.2017308175525404e-03 1.6900709561367015e-02 -5.6141470891438294e-01  -7.2051908490363623e-03 1.8271065831441131e-02 -6.0780270099970779e-01  0.0000000000000000e+00 0.0000000000000000e+00 0.0000000000000000e+00  -1.0021601374637329e-03 4.7384992726215304e-05 -3.2787406270509793e-03  -1.9636176878971177e-03 3.4298482705411547e-04 -1.2590505324698832e-02  -2.8256909262274828e-03 8.1932045779154340e-04 -2.7467189321234667e-02  -3.6076488064323547e-03 1.4500674211486721e-03 -4.7418191726462999e-02  -4.3107323495618450e-03 2.2157949087374270e-03 -7.1949663448830428e-02  -4.9358062938487917e-03 3.1001521068793900e-03 -1.0057200112053148e-01  -5.4842422092264715e-03 4.0881319460056437e-03 -1.3280306429485758e-01  -5.9580370340234570e-03 5.1654716862301331e-03 -1.6817170333927234e-01  -6.3598447537034876e-03 6.3185152848555769e-03 -2.0622154240821264e-01  -6.6930208528429456e-03 7.5342515200508275e-03 -2.4651513050257362e-01  -6.9616725546204992e-03 8.8004199153988646e-03 -2.8863845798725768e-01  -7.1707064484866400e-03 1.0105646048026610e-02 -3.3220580152116991e-01  -7.3258699499877435e-03 1.1439591941457829e-02 -3.7686485095063099e-01  -7.4337853370793098e-03 1.2793115747156900e-02 -4.2230206896042782e-01  -7.5019761459959059e-03 1.4158438423808439e-02 -4.6824823372982183e-01  -7.5388893608708792e-03 1.5529314320498892e-02 -5.1448411612761769e-01  -7.5539455283783006e-03 1.6901179534984191e-02 -5.6084627997961611e-01  -7.5576852758816315e-03 1.8271234782050425e-02 -6.0723334206816038e-01  0.0000000000000000e+00 0.0000000000000000e+00 0.0000000000000000e+00  -1.0247239532250379e-03 9.2708003679144697e-05 -3.3142588412157703e-03  -2.0258234251741957e-03 3.9224986347835257e-04 -1.2588445974913012e-02  -2.9302533095619606e-03 8.6668951999345890e-04 -2.7401609344089584e-02  -3.7513823645485222e-03 1.4935988981033454e-03 -4.7283588275361860e-02  -4.4900206761970887e-03 2.2549172412904034e-03 -7.1748067086201170e-02  -5.1469294567098398e-03 3.1347286201157815e-03 -1.0030818544269268e-01  -5.7235120730306406e-03 4.1182011951611738e-03 -1.3248280714689639e-01  -6.2218433315291664e-03 5.1911591215037002e-03 -1.6780112086080748e-01  -6.6446862034215690e-03 6.3400053405093396e-03 -2.0580681345657723e-01  -6.9955373322610386e-03 7.5517797417814095e-03 -2.4606236273318438e-01  -7.2786796433407745e-03 8.8142718758023198e-03 -2.8815360407087859e-01  -7.4992321370152114e-03 1.0116158432110297e-02 -3.3169459128683704e-01  -7.6631932822975478e-03 1.1447154097133453e-02 -3.7633272675235763e-01  -7.7774766787170411e-03 1.2798170942340882e-02 -4.2175411958546849e-01  -7.8499379909305906e-03 1.4161484360322118e-02 -4.6768912476038016e-01  -7.8893932285182926e-03 1.5530904151359834e-02 -5.1391801409063198e-01  -7.9056632623038248e-03 1.6901929549410701e-02 -5.6027675812895639e-01  -7.9098296943369336e-03 1.8271746553688416e-02 -6.0666320759206116e-01  0.0000000000000000e+00 0.0000000000000000e+00 0.0000000000000000e+00  -1.0553297260119737e-03 1.3136992359565497e-04 -3.3015859138139417e-03  -2.0949034409186574e-03 4.3911720866457536e-04 -1.2517966845990844e-02  -3.0406504716743894e-03 9.1412612766286912e-04 -2.7265779986757593e-02  -3.9003063552962244e-03 1.5382075004097707e-03 -4.7083009952841960e-02  -4.6738726869270221e-03 2.2953899698441639e-03 -7.1486651597102810e-02  -5.3619930810853275e-03 3.1706658549677138e-03 -9.9991236968108119e-02  -5.9661165561311980e-03 4.1495491799655873e-03 -1.3211615764813917e-01  -6.4884044163343556e-03 5.2180121355034428e-03 -1.6739074011517277e-01  -6.9317358482850113e-03 6.3625391949638727e-03 -2.0535862089947457e-01  -7.2997556838531102e-03 7.5702303761193378e-03 -2.4558212118870662e-01  -7.5969297323786053e-03 8.8289293703336918e-03 -2.8764684334599133e-01  -7.8285967988311420e-03 1.0127366299818317e-02 -3.3116654080485025e-01  -8.0010139719029760e-03 1.1455310185528249e-02 -3.7578824939287708e-01  -8.1213938667717388e-03 1.2803728402747740e-02 -4.2119764404650467e-01  -8.1979324784535561e-03 1.4164951645980481e-02 -4.6712457579697014e-01  -8.2398241386935599e-03 1.5532844759036499e-02 -5.1334874063597702e-01  -8.2572874419786519e-03 1.6902973467302563e-02 -5.5970545194928412e-01  -8.2618566447666842e-03 1.8272602249989757e-02 -6.0609173465161659e-01  0.0000000000000000e+00 0.0000000000000000e+00 0.0000000000000000e+00  -1.0844725453772683e-03 1.7042438307848814e-04 -3.2453448217729238e-03  -2.1650928785123592e-03 4.8684794321517772e-04 -1.2382437442443895e-02  -3.1527870004965579e-03 9.6336789130511502e-04 -2.7060434798285321e-02  -4.0511394376543360e-03 1.5849958358857114e-03 -4.6815943581505426e-02  -4.8595614447036759e-03 2.3380662588860261e-03 -7.1164440546154561e-02  -5.5787470817486948e-03 3.2086680030423789e-03 -9.9620054844475336e-02  -6.2102409556691355e-03 4.1827616294492533e-03 -1.3170203085383214e-01  -6.7563079225841059e-03 5.2465096037534855e-03 -1.6693954623407858e-01  -7.2199505400950747e-03 6.3864956681870108e-03 -2.0487603942848034e-01  -7.6049656155258681e-03 7.5898881393358384e-03 -2.4507357575507119e-01  -7.9160043634518406e-03 8.8445894241124378e-03 -2.8711744075260298e-01  -8.1586274782755961e-03 1.0139386354241829e-02 -3.3062100719656384e-01  -8.3393526410272447e-03 1.1464105141977744e-02 -3.7523086365939878e-01  -8.4656934903249211e-03 1.2809771241410322e-02 -4.2063216891786659e-01  -8.5461890489789121e-03 1.4168773320734296e-02 -4.6655418762591883e-01  -8.5904182003465179e-03 1.5535032662799906e-02 -5.1277595995870984e-01  -8.6090040009894602e-03 1.6904184148932716e-02 -5.5913207014892563e-01  -8.6139064508121786e-03 1.8273653673780896e-02 -6.0551868411624243e-01  0.0000000000000000e+00 0.0000000000000000e+00 0.0000000000000000e+00  -1.1084147601981011e-03 2.1523697532408790e-04 -3.1442768194392106e-03  -2.2325311821789406e-03 5.3860739027824579e-04 -1.2181839223427688e-02  -3.2634422115707710e-03 1.0160263948311495e-03 -2.6785954700276355e-02  -4.2010191251736833e-03 1.6348699774946631e-03 -4.6482477057186042e-02  -5.0445688603474965e-03 2.3835537792792523e-03 -7.0781299842231193e-02  -5.7950180239146228e-03 3.2491965617359054e-03 -9.9194408195969253e-02  -6.4540496388403746e-03 4.2182064314607555e-03 -1.3124016529915322e-01  -7.0240422494682441e-03 5.2769451398740333e-03 -1.6644727717950158e-01  -7.5081241703162669e-03 6.4121021936654216e-03 -2.0435881979418360e-01  -7.9102438181866616e-03 7.6109187237576471e-03 -2.4453649645831416e-01  -8.2352362401723507e-03 8.8613595029590625e-03 -2.8656518937463521e-01  -8.4888819271541089e-03 1.0152271459433284e-02 -3.3005780933122053e-01  -8.6779568569790421e-03 1.1473541385945266e-02 -3.7466041646520032e-01  -8.8102733425823847e-03 1.2816256375307276e-02 -4.2005757100130880e-01  -8.8947114860940344e-03 1.4172867023549827e-02 -4.6597786774325795e-01  -8.9412376006931891e-03 1.5537354301558337e-02 -5.1219960767458805e-01  -8.9608949008461534e-03 1.6905423258064028e-02 -5.5855656966732914e-01  -8.9660599962374313e-03 1.8274725064900202e-02 -6.0494404107077071e-01  0.0000000000000000e+00 0.0000000000000000e+00 0.0000000000000000e+00  -1.1243905878078116e-03 2.7233453722356088e-04 -2.9896599107993855e-03  -2.2930462354157832e-03 5.9867782824056959e-04 -1.1911489353010046e-02  -3.3681297484266168e-03 1.0749396301400205e-03 -2.6440389440674440e-02  -4.3455453890268725e-03 1.6898611099575738e-03 -4.6081532492691209e-02  -5.2248166926040698e-03 2.4334372150997402e-03 -7.0336458583208028e-02  -6.0071404083835303e-03 3.2935533779505349e-03 -9.8713680556251057e-02  -6.6943175458361089e-03 4.2569697467174147e-03 -1.3073005649637037e-01  -7.2888242544488788e-03 5.3102184178048595e-03 -1.6591352685659999e-01  -7.7939045186854131e-03 6.4400877237745617e-03 -2.0380664854756567e-01  -8.2136504812263013e-03 7.6338921303200705e-03 -