<?xml version="1.0"?>
<VTKFile type="UnstructuredGrid"  version="0.1"  >
<UnstructuredGrid>
<Piece  NumberOfPoints="760" NumberOfCells="3024">
<Points>
<DataArray  type="Float64"  NumberOfComponents="3"  format="ascii">0 0 0  0.05555555555555555 0 0  0.1111111111111111 0 0  0.1666666666666667 0 0  0.2222222222222222 0 0  0.2777777777777778 0 0  0.3333333333333333 0 0  0.3888888888888889 0 0  0.4444444444444444 0 0  0.5 0 0  0.5555555555555556 0 0  0.6111111111111112 0 0  0.6666666666666666 0 0  0.7222222222222222 0 0  0.7777777777777778 0 0  0.8333333333333334 0 0  0.8888888888888888 0 0  0.9444444444444444 0 0  1 0 0  0 0.01428571428571429 0  0.05555555555555555 0.01428571428571429 0  0.1111111111111111 0.01428571428571429 0  0.1666666666666667 0.01428571428571429 0  0.2222222222222222 0.01428571428571429 0  0.2777777777777778 0.01428571428571429 0  0.3333333333333333 0.01428571428571429 0  0.3888888888888889 0.01428571428571429 0  0.4444444444444444 0.01428571428571429 0  0.5 0.01428571428571429 0  0.5555555555555556 0.01428571428571429 0  0.6111111111111112 0.01428571428571429 0  0.6666666666666666 0.01428571428571429 0  0.7222222222222222 0.01428571428571429 0  0.7777777777777778 0.01428571428571429 0  0.8333333333333334 0.01428571428571429 0  0.8888888888888888 0.01428571428571429 0  0.9444444444444444 0.01428571428571429 0  1 0.01428571428571429 0  0 0.02857142857142857 0  0.05555555555555555 0.02857142857142857 0  0.1111111111111111 0.02857142857142857 0  0.1666666666666667 0.02857142857142857 0  0.2222222222222222 0.02857142857142857 0  0.2777777777777778 0.02857142857142857 0  0.3333333333333333 0.02857142857142857 0  0.3888888888888889 0.02857142857142857 0  0.4444444444444444 0.02857142857142857 0  0.5 0.02857142857142857 0  0.5555555555555556 0.02857142857142857 0  0.6111111111111112 0.02857142857142857 0  0.6666666666666666 0.02857142857142857 0  0.7222222222222222 0.02857142857142857 0  0.7777777777777778 0.02857142857142857 0  0.8333333333333334 0.02857142857142857 0  0.8888888888888888 0.02857142857142857 0  0.9444444444444444 0.02857142857142857 0  1 0.02857142857142857 0  0 0.04285714285714286 0  0.05555555555555555 0.04285714285714286 0  0.1111111111111111 0.04285714285714286 0  0.1666666666666667 0.04285714285714286 0  0.2222222222222222 0.04285714285714286 0  0.2777777777777778 0.04285714285714286 0  0.3333333333333333 0.04285714285714286 0  0.3888888888888889 0.04285714285714286 0  0.4444444444444444 0.04285714285714286 0  0.5 0.04285714285714286 0  0.5555555555555556 0.04285714285714286 0  0.6111111111111112 0.04285714285714286 0  0.6666666666666666 0.04285714285714286 0  0.7222222222222222 0.04285714285714286 0  0.7777777777777778 0.04285714285714286 0  0.8333333333333334 0.04285714285714286 0  0.8888888888888888 0.04285714285714286 0  0.9444444444444444 0.04285714285714286 0  1 0.04285714285714286 0  0 0.05714285714285715 0  0.05555555555555555 0.05714285714285715 0  0.1111111111111111 0.05714285714285715 0  0.1666666666666667 0.05714285714285715 0  0.2222222222222222 0.05714285714285715 0  0.2777777777777778 0.05714285714285715 0  0.3333333333333333 0.05714285714285715 0  0.3888888888888889 0.05714285714285715 0  0.4444444444444444 0.05714285714285715 0  0.5 0.05714285714285715 0  0.5555555555555556 0.05714285714285715 0  0.6111111111111112 0.05714285714285715 0  0.6666666666666666 0.05714285714285715 0  0.7222222222222222 0.05714285714285715 0  0.7777777777777778 0.05714285714285715 0  0.8333333333333334 0.05714285714285715 0  0.8888888888888888 0.05714285714285715 0  0.9444444444444444 0.05714285714285715 0  1 0.05714285714285715 0  0 0.07142857142857142 0  0.05555555555555555 0.07142857142857142 0  0.1111111111111111 0.07142857142857142 0  0.1666666666666667 0.07142857142857142 0  0.2222222222222222 0.07142857142857142 0  0.2777777777777778 0.07142857142857142 0  0.3333333333333333 0.07142857142857142 0  0.3888888888888889 0.07142857142857142 0  0.4444444444444444 0.07142857142857142 0  0.5 0.07142857142857142 0  0.5555555555555556 0.07142857142857142 0  0.6111111111111112 0.07142857142857142 0  0.6666666666666666 0.07142857142857142 0  0.7222222222222222 0.07142857142857142 0  0.7777777777777778 0.07142857142857142 0  0.8333333333333334 0.07142857142857142 0  0.8888888888888888 0.07142857142857142 0  0.9444444444444444 0.07142857142857142 0  1 0.07142857142857142 0  0 0.08571428571428573 0  0.05555555555555555 0.08571428571428573 0  0.1111111111111111 0.08571428571428573 0  0.1666666666666667 0.08571428571428573 0  0.2222222222222222 0.08571428571428573 0  0.2777777777777778 0.08571428571428573 0  0.3333333333333333 0.08571428571428573 0  0.3888888888888889 0.08571428571428573 0  0.4444444444444444 0.08571428571428573 0  0.5 0.08571428571428573 0  0.5555555555555556 0.08571428571428573 0  0.6111111111111112 0.08571428571428573 0  0.6666666666666666 0.08571428571428573 0  0.7222222222222222 0.08571428571428573 0  0.7777777777777778 0.08571428571428573 0  0.8333333333333334 0.08571428571428573 0  0.8888888888888888 0.08571428571428573 0  0.9444444444444444 0.08571428571428573 0  1 0.08571428571428573 0  0 0.1 0  0.05555555555555555 0.1 0  0.1111111111111111 0.1 0  0.1666666666666667 0.1 0  0.2222222222222222 0.1 0  0.2777777777777778 0.1 0  0.3333333333333333 0.1 0  0.3888888888888889 0.1 0  0.4444444444444444 0.1 0  0.5 0.1 0  0.5555555555555556 0.1 0  0.6111111111111112 0.1 0  0.6666666666666666 0.1 0  0.7222222222222222 0.1 0  0.7777777777777778 0.1 0  0.8333333333333334 0.1 0  0.8888888888888888 0.1 0  0.9444444444444444 0.1 0  1 0.1 0  0 0 0.01  0.05555555555555555 0 0.01  0.1111111111111111 0 0.01  0.1666666666666667 0 0.01  0.2222222222222222 0 0.01  0.2777777777777778 0 0.01  0.3333333333333333 0 0.01  0.3888888888888889 0 0.01  0.4444444444444444 0 0.01  0.5 0 0.01  0.5555555555555556 0 0.01  0.6111111111111112 0 0.01  0.6666666666666666 0 0.01  0.7222222222222222 0 0.01  0.7777777777777778 0 0.01  0.8333333333333334 0 0.01  0.8888888888888888 0 0.01  0.9444444444444444 0 0.01  1 0 0.01  0 0.01428571428571429 0.01  0.05555555555555555 0.01428571428571429 0.01  0.1111111111111111 0.01428571428571429 0.01  0.1666666666666667 0.01428571428571429 0.01  0.2222222222222222 0.01428571428571429 0.01  0.2777777777777778 0.01428571428571429 0.01  0.3333333333333333 0.01428571428571429 0.01  0.3888888888888889 0.01428571428571429 0.01  0.4444444444444444 0.01428571428571429 0.01  0.5 0.01428571428571429 0.01  0.5555555555555556 0.01428571428571429 0.01  0.6111111111111112 0.01428571428571429 0.01  0.6666666666666666 0.01428571428571429 0.01  0.7222222222222222 0.01428571428571429 0.01  0.7777777777777778 0.01428571428571429 0.01  0.8333333333333334 0.01428571428571429 0.01  0.8888888888888888 0.01428571428571429 0.01  0.9444444444444444 0.01428571428571429 0.01  1 0.01428571428571429 0.01  0 0.02857142857142857 0.01  0.05555555555555555 0.02857142857142857 0.01  0.1111111111111111 0.02857142857142857 0.01  0.1666666666666667 0.02857142857142857 0.01  0.2222222222222222 0.02857142857142857 0.01  0.2777777777777778 0.02857142857142857 0.01  0.3333333333333333 0.02857142857142857 0.01  0.3888888888888889 0.02857142857142857 0.01  0.4444444444444444 0.02857142857142857 0.01  0.5 0.02857142857142857 0.01  0.5555555555555556 0.02857142857142857 0.01  0.6111111111111112 0.02857142857142857 0.01  0.6666666666666666 0.02857142857142857 0.01  0.7222222222222222 0.02857142857142857 0.01  0.7777777777777778 0.02857142857142857 0.01  0.8333333333333334 0.02857142857142857 0.01  0.8888888888888888 0.02857142857142857 0.01  0.9444444444444444 0.02857142857142857 0.01  1 0.02857142857142857 0.01  0 0.04285714285714286 0.01  0.05555555555555555 0.04285714285714286 0.01  0.1111111111111111 0.04285714285714286 0.01  0.1666666666666667 0.04285714285714286 0.01  0.2222222222222222 0.04285714285714286 0.01  0.2777777777777778 0.04285714285714286 0.01  0.3333333333333333 0.04285714285714286 0.01  0.3888888888888889 0.04285714285714286 0.01  0.4444444444444444 0.04285714285714286 0.01  0.5 0.04285714285714286 0.01  0.5555555555555556 0.04285714285714286 0.01  0.6111111111111112 0.04285714285714286 0.01  0.6666666666666666 0.04285714285714286 0.01  0.7222222222222222 0.04285714285714286 0.01  0.7777777777777778 0.04285714285714286 0.01  0.8333333333333334 0.04285714285714286 0.01  0.8888888888888888 0.04285714285714286 0.01  0.9444444444444444 0.04285714285714286 0.01  1 0.04285714285714286 0.01  0 0.05714285714285715 0.01  0.05555555555555555 0.05714285714285715 0.01  0.1111111111111111 0.05714285714285715 0.01  0.1666666666666667 0.05714285714285715 0.01  0.2222222222222222 0.05714285714285715 0.01  0.2777777777777778 0.05714285714285715 0.01  0.3333333333333333 0.05714285714285715 0.01  0.3888888888888889 0.05714285714285715 0.01  0.4444444444444444 0.05714285714285715 0.01  0.5 0.05714285714285715 0.01  0.5555555555555556 0.05714285714285715 0.01  0.6111111111111112 0.05714285714285715 0.01  0.6666666666666666 0.05714285714285715 0.01  0.7222222222222222 0.05714285714285715 0.01  0.7777777777777778 0.05714285714285715 0.01  0.8333333333333334 0.05714285714285715 0.01  0.8888888888888888 0.05714285714285715 0.01  0.9444444444444444 0.05714285714285715 0.01  1 0.05714285714285715 0.01  0 0.07142857142857142 0.01  0.05555555555555555 0.07142857142857142 0.01  0.1111111111111111 0.07142857142857142 0.01  0.1666666666666667 0.07142857142857142 0.01  0.2222222222222222 0.07142857142857142 0.01  0.2777777777777778 0.07142857142857142 0.01  0.3333333333333333 0.07142857142857142 0.01  0.3888888888888889 0.07142857142857142 0.01  0.4444444444444444 0.07142857142857142 0.01  0.5 0.07142857142857142 0.01  0.5555555555555556 0.07142857142857142 0.01  0.6111111111111112 0.07142857142857142 0.01  0.6666666666666666 0.07142857142857142 0.01  0.7222222222222222 0.07142857142857142 0.01  0.7777777777777778 0.07142857142857142 0.01  0.8333333333333334 0.07142857142857142 0.01  0.8888888888888888 0.07142857142857142 0.01  
[...]
<PointData  Vectors="f_33"> 
<DataArray  type="Float64"  Name="f_33"  NumberOfComponents="3" format="ascii">0.0000000000000000e+00 0.0000000000000000e+00 0.0000000000000000e+00  -2.5806394033833628e-03 -1.2352722032665377e-04 -3.7829173561570715e-03  -4.8156403439984872e-03 2.5731839938931023e-04 -1.4529199879891042e-02  -6.8581784622286186e-03 8.7177677174153699e-04 -3.1757054334684051e-02  -8.7119207733349219e-03 1.6697721545745367e-03 -5.4862224571559329e-02  -1.0379635466758578e-02 2.6224860079968435e-03 -8.3272311176058711e-02  -1.1863249272585861e-02 3.7089859337910537e-03 -1.1642587316309816e-01  -1.3165740469096996e-02 4.9111925580469723e-03 -1.5377101628521023e-01  -1.4291465354239512e-02 6.2123296708033833e-03 -1.9476765818248004e-01  -1.5246299545269244e-02 7.5964704879401494e-03 -2.3889119891597338e-01  -1.6037795656287816e-02 9.0484769177204011e-03 -2.8563704369525389e-01  -1.6675351098803172e-02 1.0554088820459160e-02 -3.3452578772548341e-01  -1.7170368245248660e-02 1.2100076276715067e-02 -3.8510896016996249e-01  -1.7536397198047098e-02 1.3674422158874822e-02 -4.3697524807641391e-01  -1.7789256155450069e-02 1.5266522163946127e-02 -4.8975712528955168e-01  -1.7947128125246709e-02 1.6867397779088592e-02 -5.4313781030181174e-01  -1.8030647513090650e-02 1.8469920296222478e-02 -5.9685847976967432e-01  -1.8063025367454542e-02 2.0069034470067762e-02 -6.5072573557489632e-01  -1.8069964912636644e-02 2.1662134187591931e-02 -7.0462001039998290e-01  0.0000000000000000e+00 0.0000000000000000e+00 0.0000000000000000e+00  -2.4782782448271646e-03 3.2132276551720168e-06 -3.8957636342569438e-03  -4.7814266366361631e-03 3.6968507488041092e-04 -1.4609887841135438e-02  -6.8835631495438813e-03 9.7364132470688673e-04 -3.1759248878489091e-02  -8.7926707420434881e-03 1.7615107310466787e-03 -5.4777546261472181e-02  -1.0511197741827551e-02 2.7042504736474334e-03 -8.3102755570771306e-02  -1.2041087729371316e-02 3.7809401835843786e-03 -1.1617690760127833e-01  -1.3385358036937654e-02 4.9735671436946707e-03 -1.5344935935588364e-01  -1.4548399895886291e-02 6.2654352341034846e-03 -1.9438049841305868e-01  -1.5536132024097067e-02 7.6407066577779395e-03 -2.3844588556633778e-01  -1.6356170825981627e-02 9.0843414277191753e-03 -2.8514094296958781e-01  -1.7018006312970155e-02 1.0582186294175042e-02 -3.3398619529310819e-01  -1.7533168080302565e-02 1.2121126085658141e-02 -3.8453302955094842e-01  -1.7915372894128274e-02 1.3689264992471233e-02 -4.3636991975224065e-01  -1.8180649285916128e-02 1.5276124957832969e-02 -4.8912905066325685e-01  -1.8347436921715348e-02 1.6872856594691836e-02 -5.4249326689390398e-01  -1.8436668799889481e-02 1.8472460938278208e-02 -5.9620327048140331e-01  -1.8471908998201371e-02 2.0069998386245506e-02 -6.5006504078593008e-01  -1.8479788239376103e-02 2.1662631018718476e-02 -7.0395804292028441e-01  0.0000000000000000e+00 0.0000000000000000e+00 0.0000000000000000e+00  -2.4857672985885179e-03 1.0043723666759309e-04 -3.9415450379035322e-03  -4.8269885443220960e-03 4.8048954833548109e-04 -1.4613169436500555e-02  -6.9774138403931683e-03 1.0811464680933133e-03 -3.1686892940492310e-02  -8.9335076513248433e-03 1.8608318946897503e-03 -5.4624567937993862e-02  -1.0695474457214972e-02 2.7937930301662637e-03 -8.2871874423014455e-02  -1.2264726565450365e-02 3.8602842780400483e-03 -1.1587369099728742e-01  -1.3644166717311263e-02 5.0427430896887015e-03 -1.5308043057204931e-01  -1.4838203242842013e-02 6.3246869502124074e-03 -1.9395285005186402e-01  -1.5852833575403780e-02 7.6904178424700336e-03 -2.3796659304972528e-01  -1.6695797803705188e-02 9.1250157698729416e-03 -2.8461702352698581e-01  -1.7376751205338398e-02 1.0614446021953491e-02 -3.3342451741463403e-01  -1.7907431001376234e-02 1.2145716379877566e-02 -3.8394023686245526e-01  -1.8301806150501490e-02 1.3707059587315641e-02 -4.3575235580138361e-01  -1.8576204398680202e-02 1.5288130795780248e-02 -4.8849267964306692e-01  -1.8749412820980919e-02 1.6880215929915714e-02 -5.4184358803065913e-01  -1.8842754067457796e-02 1.8476450630390037e-02 -5.9554522253114373e-01  -1.8880206231207754e-02 2.0072029091942473e-02 -6.4940288163913018e-01  -1.8888899401226709e-02 2.1664068525986686e-02 -7.0329510000134310e-01  0.0000000000000000e+00 0.0000000000000000e+00 0.0000000000000000e+00  -2.5108464512423865e-03 1.8531593799164019e-04 -3.9307324452135094e-03  -4.8905045096190045e-03 5.8863596523267222e-04 -1.4536231884848868e-02  -7.0880349066202424e-03 1.1915873288932516e-03 -3.1533436814885130e-02  -9.0897377128264494e-03 1.9649510060020473e-03 -5.4395495927504083e-02  -1.0893581778856642e-02 2.8885152461446436e-03 -8.2571910789283220e-02  -1.2500574274832123e-02 3.9446227531124874e-03 -1.1550900313834148e-01  -1.3913570070269726e-02 5.1165203580521802e-03 -1.5265772383851364e-01  -1.5137027068938049e-02 6.3880762163761101e-03 -1.9347897438372608e-01  -1.6177043064531927e-02 7.7437856741902379e-03 -2.3744835238757075e-01  -1.7041500756856023e-02 9.1688715319198123e-03 -2.8406106460030883e-01  -1.7740239587411541e-02 1.0649429102081987e-02 -3.3283724583998914e-01  -1.8285224088290978e-02 1.2172596566702968e-02 -3.8332773974152062e-01  -1.8690696032378388e-02 1.3726741374314037e-02 -4.3512032300956538e-01  -1.8973303901265871e-02 1.5301657710864006e-02 -4.8784632125561617e-01  -1.9152205143852085e-02 1.6888772309616686e-02 -5.4118754743641073e-01  -1.9249137546951751e-02 1.8481359867529207e-02 -5.9488348469967423e-01  -1.9288505048101166e-02 2.0074758016414375e-02 -6.4873866515450973e-01  -1.9297877549970824e-02 2.1666223988314470e-02 -7.0263062855420810e-01  0.0000000000000000e+00 0.0000000000000000e+00 0.0000000000000000e+00  -2.5310436007889886e-03 2.6932946595947707e-04 -3.8677554528443836e-03  -4.9552157531957391e-03 6.9740976154238185e-04 -1.4382837941218323e-02  -7.2023312465132648e-03 1.3047270372039343e-03 -3.1299221836654956e-02  -9.2503400850079045e-03 2.0726994060647221e-03 -5.4089373369275731e-02  -1.1096069408017491e-02 2.9870351076990462e-03 -8.2201460460677458e-02  -1.2740561461254287e-02 4.0325845187095134e-03 -1.1508134839972355e-01  -1.4186780028547012e-02 5.1936095301328960e-03 -1.5217979671631160e-01  -1.5439288899389609e-02 6.4544172778718493e-03 -1.9295753747387062e-01  -1.6504308311741166e-02 7.7997337066782512e-03 -2.3688995745139788e-01  -1.7389873438423697e-02 9.2149410443485257e-03 -2.8347199254233141e-01  -1.8106013329175854e-02 1.0686273337876950e-02 -3.3222343777063984e-01  -1.8664923842498179e-02 1.2201005007401119e-02 -3.8269472142392019e-01  -1.9081123309021980e-02 1.3747643152185974e-02 -4.3447312374243907e-01  -1.9371584912262312e-02 1.5316125895657000e-02 -4.8718938823306601e-01  -1.9555841697195365e-02 1.6898026036914107e-02 -5.4052465718298914e-01  -1.9656057262520333e-02 1.8486761975045611e-02 -5.9421765375821900e-01  -1.9697078131100353e-02 2.0077822395014964e-02 -6.4807205037732130e-01  -1.9706948124234135e-02 2.1668753958284992e-02 -7.0196435726761885e-01  0.0000000000000000e+00 0.0000000000000000e+00 0.0000000000000000e+00  -2.5383388256348372e-03 3.6226240083814156e-04 -3.7502600128627842e-03  -5.0132047417031011e-03 8.1211729811233972e-04 -1.4152490094324887e-02  -7.3133448091950602e-03 1.4225051582391398e-03 -3.0983989335799315e-02  -9.4091188881847629e-03 2.1845558704708091e-03 -5.3705685477951286e-02  -1.1297456742518898e-02 3.0892971888431381e-03 -8.1759860552744631e-02  -1.2979910903230460e-02 4.1239212060303196e-03 -1.1459003428395262e-01  -1.4459704172365246e-02 5.2736914800111181e-03 -1.5164598806064000e-01  -1.5741555423788040e-02 6.5233643568018904e-03 -1.9238793607217841e-01  -1.6831822941609158e-02 7.8579053036048081e-03 -2.3629087327551812e-01  -1.7738697160768122e-02 9.2628622495165396e-03 -2.8284934403302903e-01  -1.8472394362154119e-02 1.0724612952714272e-02 -3.3158270172999216e-01  -1.9045337290964939e-02 1.2230572669144223e-02 -3.8204086081172800e-01  -1.9472315634083252e-02 1.3769392821803427e-02 -4.3381050465178145e-01  -1.9770621886518933e-02 1.5331160562578675e-02 -4.8652169115032551e-01  -1.9960159841496346e-02 1.6907600937530687e-02 -5.3985478594321334e-01  -2.0063521174745570e-02 1.8492282987051072e-02 -5.9354764645636493e-01  -2.0106018886481673e-02 2.0080854609866444e-02 -6.4740298847042443e-01  -2.0116223130721114e-02 2.1671265377329888e-02 -7.0129627611459211e-01  0.0000000000000000e+00 0.0000000000000000e+00 0.0000000000000000e+00  -2.5213314432598805e-03 4.7263047031012242e-04 -3.5669696917553831e-03  -5.0511208252045688e-03 9.3778972860810458e-04 -1.3838950795958520e-02  -7.4075205043151356e-03 1.5473618006993683e-03 -3.0584592244146339e-02  -9.5531258987793660e-03 2.3016001104481459e-03 -5.3242352042666682e-02  -1.1485855446584472e-02 3.1957777456753647e-03 -8.1245496940293191e-02  -1.3207961274732337e-02 4.2188415888155502e-03 -1.1403373680707743e-01  -1.4722953948417900e-02 5.3568424953934811e-03 -1.5105520680438225e-01  -1.6035705266824584e-02 6.5949138373734830e-03 -1.9176928890073031e-01  -1.7152700852421498e-02 7.9182375082115439e-03 -2.3565041485977589e-01  -1.8082271304806243e-02 9.3125213966532040e-03 -2.8219261858383499e-01  -1.8834802257152686e-02 1.0764287768278842e-02 -3.3091470894296926e-01  -1.9422923614439348e-02 1.2261096192043595e-02 -3.8136598591385673e-01  -1.9861675409803031e-02 1.3791747167881353e-02 -4.3313243293816356e-01  -2.0168647531881332e-02 1.5346482522038041e-02 -4.8584331573459399e-01  -2.0364091719997635e-02 1.6917186741068950e-02 -5.3917811324015830e-01  -2.0471009202393711e-02 1.8497589525450758e-02 -5.9287370409809792e-01  -2.0515197645415116e-02 2.0083500912290341e-02 -6.4673174304611825e-01  -2.0525745258842137e-02 2.1673359599321759e-02 -7.0062663839732964e-01  0.0000000000000000e+00 0.0000000000000000e+00 0.0000000000000000e+00  -2.4300474497400675e-03 5.9370756543387503e-04 -3.3123967175124757e-03  -5.0125980281489632e-03 1.0679232359132678e-03 -1.3442439030280770e-02  -7.4293416963251251e-03 1.6729345019438520e-03 -3.0104566820767047e-02  -9.6301214373418834e-03 2.4177117698464725e-03 -5.2703923199356212e-02  -1.1613503753228950e-02 3.3007884410642869e-03 -8.0663097884195040e-02  -1.3381869917377050e-02 4.3122079627127084e-03 -1.1341703354646313e-01  -1.4938717431207471e-02 5.4385241997277709e-03 -1.5041175250885636e-01  -1.6288919030749961e-02 6.6651343535795672e-03 -1.9110556699411818e-01  -1.7438992495025268e-02 7.9773919868457374e-03 -2.3497220385832671e-01  -1.8397330802468963e-02 9.3611463916335180e-03 -2.8150507957636733e-01  -1.9174413786994804e-02 1.0803055730280627e-02 -3.3022236115352455e-01  -1.9783000858296575e-02 1.2290819018330757e-02 -3.8067263684651859e-01  -2.0238300793878609e-02 1.3813382375019995e-02 -4.3244108992137487e-01  -2.0558115313042170e-02 1.5361139509998838e-02 -4.8515609013928196e-01  -2.0762955121938119e-02 1.6926132617393546e-02 -5.3849612249164247e-01  -2.0876133462849254e-02 1.8502257654161483e-02 -5.9219697435768304e-01  -2.0923886996588741e-02 2.0085470763142339e-02 -6.4605908184405325e-01  -2.0935582464569263e-02 2.1674773041585455e-02 -6.9995579110783490e-01  0.0000000000000000e+00 0.0000000000000000e+00 0.0000000000000000e+00  -1.1610731566194048e-03 -2.2868697730573048e-05 -3.6739473582727824e-03  -2.2004499311591859e-03 3.3339109908325120e-04 -1.4428318110694366e-02  -3.1449241468899033e-03 8.8954930221891038e-04 -3.1664198027814013e-02  -4.0027887936607068e-03 1.6244609293291328e-03 -5.4777723192095708e-02  -4.7755655050756426e-03 2.5159591634776623e-03 -8.3196254080328158e-02  -5.4638907872550622e-03 3.5452602660412565e-03 -1.1635823339933127e-01  -6.0689665423099949e-03 4.6950702785358419e-03 -1.5371167566016458e-01  -6.5926932990375293e-03 5.9489176212285666e-03 -1.9471642161820127e-01  -7.0376940775864934e-03 7.2909886732954116e-03 -2.3884779649516519e-01  -7.4073677990117662e-03 8.7061679362196685e-03 -2.8560112625688050e-01  -7.7059600784967356e-03 1.0180161179779677e-02 -3.3449692022262945e-01  -7.9386355935231658e-03 1.1699656632410181e-02 -3.8508661474184336e-01  -8.1115442785255551e-03 1.3252507080868555e-02 -4.3695879765672113e-01  -8.2318778153529105e-03 1.4827925713327098e-02 -4.8974583807421562e-01  -8.3079156932982894e-03 1.6416692421220461e-02 -5.4313084509844911e-01  -8.3490670354495547e-03 1.8011365621677058e-02 -5.9685488079100768e-01  -8.3659254599768827e-03 1.9606471006051583e-02 -6.5072441988752672e-01  -8.3700618637347745e-03 2.1198790578967727e-02 -7.0461942898322127e-01  0.0000000000000000e+00 0.0000000000000000e+00 0.0000000000000000e+00  -1.1546178068222493e-03 5.4757787289407540e-05 -3.7752179700555927e-03  -2.2636165252835501e-03 3.9615746250019933e-04 -1.4507608747627890e-02  -3.2594743327177974e-03 9.4666372831755669e-04 -3.1665996509462571e-02  -4.1643061592160548e-03 1.6760696335492017e-03 -5.4692961003500622e-02  -4.9794072941652008e-03 2.5620912091099553e-03 -8.3026693254660555e-02  -5.7055813434285473e-03 3.5859698547902343e-03 -1.1610926639433486e-01  -6.3441628025297323e-03 4.7304641049337789e-03 -1.5338999613367121e-01  -6.8971645324206500e-03 5.9791531152431996e-03 -1.9432921143601531e-01  -7.3673303417480024e-03 7.3162744566274513e-03 -2.3840240556053940e-01  -7.7582061558061468e-03 8.7267671151088928e-03 -2.8510492468870691e-01  -8.0742202258255440e-03 1.0196395642014125e-02 -3.3395720937647350e-01  -8.3207611553207488e-03 1.1711911307478054e-02 -3.8451055503787240e-01  -8.5042481546470355e-03 1.3261233692675177e-02 -4.3635333748400656e-01  -8.6321907424175056e-03 1.4833645783379947e-02 -4.8911763769780453e-01  -8.7132365712725424e-03 1.6419999559382063e-02 -5.4248619203027570e-01  -8.7572107306003455e-03 1.8012928064976994e-02 -5.9619959006310508e-01  -8.7751845653125746e-03 1.9607032648629417e-02 -6.5006368370810730e-01  -8.7796560965842062e-03 2.1198992452191118e-02 -7.0395758807757891e-01  0.0000000000000000e+00 0.0000000000000000e+00 0.0000000000000000e+00  -1.1807403778418418e-03 1.0702507169914491e-04 -3.8163164443682247e-03  -2.3355596488051663e-03 4.5305019620387225e-04 -1.4505488348101897e-02  -3.3803997954140342e-03 1.0014494961404382e-03 -3.1590659184849580e-02  -4.3305750982038380e-03 1.7265040127642244e-03 -5.4537950904408661e-02  -5.1868810624877823e-03 2.6075052406515317e-03 -8.2794233648399204e-02  -5.9499977830277679e-03 3.6261924061181680e-03 -1.1580474645544277e-01  -6.6212903022196149e-03 4.7655232968479202e-03 -1.5301997392901479e-01  -7.2028534642894562e-03 6.0091754288949190e-03 -1.9390065266381334e-01  -7.6975476822693642e-03 7.3414536910056272e-03 -2.3792237134382732e-01  -8.1090718794540068e-03 8.7473565918911190e-03 -2.8458042141643181e-01  -8.4420470966858688e-03 1.0212708306014319e-02 -3.3339509474789997e-01  -8.7020977482285752e-03 1.1724322313992874e-02 -3.8391746059433440e-01  -8.8959248564706491e-03 1.3270183433261543e-02 -4.3573559281438390e-01  -9.0313683460308443e-03 1.4839642398050213e-02 -4.8848119085568037e-01  -9.1174561073752297e-03 1.6423620344852261e-02 -5.4183652375040059e-01  -9.1644391451321354e-03 1.8014821193486474e-02 -5.9554161861460997e-01  -9.1838540291368093e-03 1.9607926424388529e-02 -6.4940164561885361e-01  -9.1888334959890610e-03 2.1199602314078272e-02 -7.0329482204190630e-01  0.0000000000000000e+00 0.0000000000000000e+00 0.0000000000000000e+00  -1.2161382249118674e-03 1.5162823336552797e-04 -3.8017885541927303e-03  -2.4154491374534506e-03 5.0718645791090241e-04 -1.4424329071421445e-02  -3.5080841180796154e-03 1.0563179033594400e-03 -3.1434068381750391e-02  -4.5028690587109680e-03 1.7781833864155931e-03 -5.4306514399981368e-02  -5.3996645650205392e-03 2.6544785558224558e-03 -8.2492356344793613e-02  -6.1990105040609401e-03 3.6679858639745537e-03 -1.1543844769565656e-01  -6.9023181156519665e-03 4.8020589379220045e-03 -1.5259589671894316e-01  -7.5117740256354613e-03 6.0405440885792803e-03 -1.9342561916757178e-01  -8.0303636216268338e-03 7.3678394786592244e-03 -2.3740316986130497e-01  -8.4619471606515086e-03 8.7690134874367307e-03 -2.8402368631186348e-01  -8.8113471801839066e-03 1.0229954596401679e-02 -3.3280721910388217e-01  -9.0844330389948970e-03 1.1737541104339048e-02 -3.8330451742262756e-01  -9.2881970633478545e-03 1.3279824921311901e-02 -4.3510325574266867e-01  -9.4308193519004081e-03 1.4846226052017443e-02 -4.8783465125272096e-01  -9.5217184940528631e-03 1.6427735697225436e-02 -5.4118040368209441e-01  -9.5715832208847062e-03 1.8017128016909873e-02 -5.9487987976392154e-01  -9.5924130195272194e-03 1.9609168361127596e-02 -6.4873748525422714e-01  -9.5978710807472188e-03 2.1200620571976650e-02 -7.0263046239020510e-01  0.0000000000000000e+00 0.0000000000000000e+00 0.0000000000000000e+00  -1.2498443874609079e-03 1.9669453465506786e-04 -3.7369640863380541e-03  -2.4966142353421037e-03 5.6232835687330962e-04 -1.4268014905171890e-02  -3.6377733346117827e-03 1.1132779279311015e-03 -3.1197070888265035e-02  -4.6773667047449088e-03 1.8323871808388376e-03 -5.3998061064524296e-02  -5.6145716668543457e-03 2.7040049375382652e-03 -8.2119936101395966e-02  -6.4499812436171148e-03 3.7121736737268235e-03 -1.1500910029768953e-01  -7.1851102094268862e-03 4.8407587446699513e-03 -1.5211651171833501e-01  -7.8222564594722811e-03 6.0738238412908624e-03 -1.9290293759655039e-01  -8.3645384684022939e-03 7.3958807785311333e-03 -2.3684372969071674e-01  -8.8159820957008118e-03 8.7920771893505879e-03 -2.8343375647519092e-01  -9.1816142327357450e-03 1.0248371133457600e-02 -3.3219272806147337e-01  -9.4675515917539092e-03 1.1751709539006575e-02 -3.8267097654866744e-01  -9.6810801412470209e-03 1.3290214773611577e-02 -4.3445567773388233e-01  -9.8307225941646689e-03 1.4853379421186965e-02 -4.8717746426179170e-01  -9.9262915581476621e-03 1.6432267965815053e-02 -5.4051736259826721e-01  -9.9789210696965384e-03 1.8019726526903292e-02 -5.9421397739235071e-01  -1.0001081790768692e-02 1.9610607516658413e-02 -6.4807085788411301e-01  -1.0006935744575703e-02 2.1201870801307462e-02 -7.0196422622017629e-01  0.0000000000000000e+00 0.0000000000000000e+00 0.0000000000000000e+00  -1.2775471914331278e-03 2.4840444213816465e-04 -3.6203958875638880e-03  -2.5745928335046513e-03 6.2212463210709426e-04 -1.4036526989051171e-02  -3.7657365921865741e-03 1.1741900320538295e-03 -3.0880108001065991e-02  -4.8507449928146609e-03 1.8901646825272998e-03 -5.3612694222541321e-02  -5.8286722414625462e-03 2.7567913467402994e-03 -8.1676819930628322e-02  -6.7003743475410292e-03 3.7592955699390120e-03 -1.1451643909379255e-01  -7.4675189399280315e-03 4.8820554166353379e-03 -1.5158151779044593e-01  -8.1325267848166086e-03 6.1093621869487726e-03 -1.9233230542668189e-01  -8.6986520414990883e-03 7.4258487246330451e-03 -2.3624376236686787e-01  -9.1700855248315321e-03 8.8167470690320420e-03 -2.8281036507729468e-01  -9.5520563787012073e-03 1.0268089079618133e-02 -3.3155138093919351e-01  -9.8509259187494203e-03 1.1766894301920454e-02 -3.8201662677962411e-01  -1.0074270740202359e-02 1.3301359622690627e-02 -4.3379267991869752e-01  -1.0230953080416851e-02 1.4861054534963005e-02 -4.8650948570576819e-01  -1.0331176958852276e-02 1.6437121666952881e-02 -5.3984729214569749e-01  -1.0386524879342144e-02 1.8022483181457792e-02 -5.9354383605750238e-01  -1.0409957130290288e-02 1.9612080026989952e-02 -6.4740171310433825e-01  -1.0416123594783559e-02 2.1203144270586088e-02 -7.0129609700648254e-01  0.0000000000000000e+00 0.0000000000000000e+00 0.0000000000000000e+00  -1.2960637378785203e-03 3.1427842827336596e-04 -3.4420344882363815e-03  -2.6445728354691478e-03 6.9151492692418341e-04 -1.3724466692141108e-02  -3.8867914150772756e-03 1.2423336559458961e-03 -3.0480926751703299e-02  -5.0179132427089325e-03 1.9538690581966459e-03 -5.3149163636249636e-02  -6.0372393671014489e-03 2.8146793008466580e-03 -8.1162109249242956e-02  -6.9459325160672394e-03 3.8108693532857793e-03 -1.1395974183581563e-01  -7.7457899776939088e-03 4.9272196405828724e-03 -1.5099032067214363e-01  -8.4393370653499649e-03 6.1482154688019507e-03 -1.9171324140183205e-01  -9.0299520313404987e-03 7.4586025500030803e-03 -2.3560289376206478e-01  -9.5219813975691500e-03 8.8436978821752332e-03 -