<?xml version="1.0"?>
<VTKFile type="UnstructuredGrid"  version="0.1"  >
<UnstructuredGrid>
<Piece  NumberOfPoints="760" NumberOfCells="3024">
<Points>
<DataArray  type="Float64"  NumberOfComponents="3"  format="ascii">0 0 0  0.05555555555555555 0 0  0.1111111111111111 0 0  0.1666666666666667 0 0  0.2222222222222222 0 0  0.2777777777777778 0 0  0.3333333333333333 0 0  0.3888888888888889 0 0  0.4444444444444444 0 0  0.5 0 0  0.5555555555555556 0 0  0.6111111111111112 0 0  0.6666666666666666 0 0  0.7222222222222222 0 0  0.7777777777777778 0 0  0.8333333333333334 0 0  0.8888888888888888 0 0  0.9444444444444444 0 0  1 0 0  0 0.01428571428571429 0  0.05555555555555555 0.01428571428571429 0  0.1111111111111111 0.01428571428571429 0  0.1666666666666667 0.01428571428571429 0  0.2222222222222222 0.01428571428571429 0  0.2777777777777778 0.01428571428571429 0  0.3333333333333333 0.01428571428571429 0  0.3888888888888889 0.01428571428571429 0  0.4444444444444444 0.01428571428571429 0  0.5 0.01428571428571429 0  0.5555555555555556 0.01428571428571429 0  0.6111111111111112 0.01428571428571429 0  0.6666666666666666 0.01428571428571429 0  0.7222222222222222 0.01428571428571429 0  0.7777777777777778 0.01428571428571429 0  0.8333333333333334 0.01428571428571429 0  0.8888888888888888 0.01428571428571429 0  0.9444444444444444 0.01428571428571429 0  1 0.01428571428571429 0  0 0.02857142857142857 0  0.05555555555555555 0.02857142857142857 0  0.1111111111111111 0.02857142857142857 0  0.1666666666666667 0.02857142857142857 0  0.2222222222222222 0.02857142857142857 0  0.2777777777777778 0.02857142857142857 0  0.3333333333333333 0.02857142857142857 0  0.3888888888888889 0.02857142857142857 0  0.4444444444444444 0.02857142857142857 0  0.5 0.02857142857142857 0  0.5555555555555556 0.02857142857142857 0  0.6111111111111112 0.02857142857142857 0  0.6666666666666666 0.02857142857142857 0  0.7222222222222222 0.02857142857142857 0  0.7777777777777778 0.02857142857142857 0  0.8333333333333334 0.02857142857142857 0  0.8888888888888888 0.02857142857142857 0  0.9444444444444444 0.02857142857142857 0  1 0.02857142857142857 0  0 0.04285714285714286 0  0.05555555555555555 0.04285714285714286 0  0.1111111111111111 0.04285714285714286 0  0.1666666666666667 0.04285714285714286 0  0.2222222222222222 0.04285714285714286 0  0.2777777777777778 0.04285714285714286 0  0.3333333333333333 0.04285714285714286 0  0.3888888888888889 0.04285714285714286 0  0.4444444444444444 0.04285714285714286 0  0.5 0.04285714285714286 0  0.5555555555555556 0.04285714285714286 0  0.6111111111111112 0.04285714285714286 0  0.6666666666666666 0.04285714285714286 0  0.7222222222222222 0.04285714285714286 0  0.7777777777777778 0.04285714285714286 0  0.8333333333333334 0.04285714285714286 0  0.8888888888888888 0.04285714285714286 0  0.9444444444444444 0.04285714285714286 0  1 0.04285714285714286 0  0 0.05714285714285715 0  0.05555555555555555 0.05714285714285715 0  0.1111111111111111 0.05714285714285715 0  0.1666666666666667 0.05714285714285715 0  0.2222222222222222 0.05714285714285715 0  0.2777777777777778 0.05714285714285715 0  0.3333333333333333 0.05714285714285715 0  0.3888888888888889 0.05714285714285715 0  0.4444444444444444 0.05714285714285715 0  0.5 0.05714285714285715 0  0.5555555555555556 0.05714285714285715 0  0.6111111111111112 0.05714285714285715 0  0.6666666666666666 0.05714285714285715 0  0.7222222222222222 0.05714285714285715 0  0.7777777777777778 0.05714285714285715 0  0.8333333333333334 0.05714285714285715 0  0.8888888888888888 0.05714285714285715 0  0.9444444444444444 0.05714285714285715 0  1 0.05714285714285715 0  0 0.07142857142857142 0  0.05555555555555555 0.07142857142857142 0  0.1111111111111111 0.07142857142857142 0  0.1666666666666667 0.07142857142857142 0  0.2222222222222222 0.07142857142857142 0  0.2777777777777778 0.07142857142857142 0  0.3333333333333333 0.07142857142857142 0  0.3888888888888889 0.07142857142857142 0  0.4444444444444444 0.07142857142857142 0  0.5 0.07142857142857142 0  0.5555555555555556 0.07142857142857142 0  0.6111111111111112 0.07142857142857142 0  0.6666666666666666 0.07142857142857142 0  0.7222222222222222 0.07142857142857142 0  0.7777777777777778 0.07142857142857142 0  0.8333333333333334 0.07142857142857142 0  0.8888888888888888 0.07142857142857142 0  0.9444444444444444 0.07142857142857142 0  1 0.07142857142857142 0  0 0.08571428571428573 0  0.05555555555555555 0.08571428571428573 0  0.1111111111111111 0.08571428571428573 0  0.1666666666666667 0.08571428571428573 0  0.2222222222222222 0.08571428571428573 0  0.2777777777777778 0.08571428571428573 0  0.3333333333333333 0.08571428571428573 0  0.3888888888888889 0.08571428571428573 0  0.4444444444444444 0.08571428571428573 0  0.5 0.08571428571428573 0  0.5555555555555556 0.08571428571428573 0  0.6111111111111112 0.08571428571428573 0  0.6666666666666666 0.08571428571428573 0  0.7222222222222222 0.08571428571428573 0  0.7777777777777778 0.08571428571428573 0  0.8333333333333334 0.08571428571428573 0  0.8888888888888888 0.08571428571428573 0  0.9444444444444444 0.08571428571428573 0  1 0.08571428571428573 0  0 0.1 0  0.05555555555555555 0.1 0  0.1111111111111111 0.1 0  0.1666666666666667 0.1 0  0.2222222222222222 0.1 0  0.2777777777777778 0.1 0  0.3333333333333333 0.1 0  0.3888888888888889 0.1 0  0.4444444444444444 0.1 0  0.5 0.1 0  0.5555555555555556 0.1 0  0.6111111111111112 0.1 0  0.6666666666666666 0.1 0  0.7222222222222222 0.1 0  0.7777777777777778 0.1 0  0.8333333333333334 0.1 0  0.8888888888888888 0.1 0  0.9444444444444444 0.1 0  1 0.1 0  0 0 0.01  0.05555555555555555 0 0.01  0.1111111111111111 0 0.01  0.1666666666666667 0 0.01  0.2222222222222222 0 0.01  0.2777777777777778 0 0.01  0.3333333333333333 0 0.01  0.3888888888888889 0 0.01  0.4444444444444444 0 0.01  0.5 0 0.01  0.5555555555555556 0 0.01  0.6111111111111112 0 0.01  0.6666666666666666 0 0.01  0.7222222222222222 0 0.01  0.7777777777777778 0 0.01  0.8333333333333334 0 0.01  0.8888888888888888 0 0.01  0.9444444444444444 0 0.01  1 0 0.01  0 0.01428571428571429 0.01  0.05555555555555555 0.01428571428571429 0.01  0.1111111111111111 0.01428571428571429 0.01  0.1666666666666667 0.01428571428571429 0.01  0.2222222222222222 0.01428571428571429 0.01  0.2777777777777778 0.01428571428571429 0.01  0.3333333333333333 0.01428571428571429 0.01  0.3888888888888889 0.01428571428571429 0.01  0.4444444444444444 0.01428571428571429 0.01  0.5 0.01428571428571429 0.01  0.5555555555555556 0.01428571428571429 0.01  0.6111111111111112 0.01428571428571429 0.01  0.6666666666666666 0.01428571428571429 0.01  0.7222222222222222 0.01428571428571429 0.01  0.7777777777777778 0.01428571428571429 0.01  0.8333333333333334 0.01428571428571429 0.01  0.8888888888888888 0.01428571428571429 0.01  0.9444444444444444 0.01428571428571429 0.01  1 0.01428571428571429 0.01  0 0.02857142857142857 0.01  0.05555555555555555 0.02857142857142857 0.01  0.1111111111111111 0.02857142857142857 0.01  0.1666666666666667 0.02857142857142857 0.01  0.2222222222222222 0.02857142857142857 0.01  0.2777777777777778 0.02857142857142857 0.01  0.3333333333333333 0.02857142857142857 0.01  0.3888888888888889 0.02857142857142857 0.01  0.4444444444444444 0.02857142857142857 0.01  0.5 0.02857142857142857 0.01  0.5555555555555556 0.02857142857142857 0.01  0.6111111111111112 0.02857142857142857 0.01  0.6666666666666666 0.02857142857142857 0.01  0.7222222222222222 0.02857142857142857 0.01  0.7777777777777778 0.02857142857142857 0.01  0.8333333333333334 0.02857142857142857 0.01  0.8888888888888888 0.02857142857142857 0.01  0.9444444444444444 0.02857142857142857 0.01  1 0.02857142857142857 0.01  0 0.04285714285714286 0.01  0.05555555555555555 0.04285714285714286 0.01  0.1111111111111111 0.04285714285714286 0.01  0.1666666666666667 0.04285714285714286 0.01  0.2222222222222222 0.04285714285714286 0.01  0.2777777777777778 0.04285714285714286 0.01  0.3333333333333333 0.04285714285714286 0.01  0.3888888888888889 0.04285714285714286 0.01  0.4444444444444444 0.04285714285714286 0.01  0.5 0.04285714285714286 0.01  0.5555555555555556 0.04285714285714286 0.01  0.6111111111111112 0.04285714285714286 0.01  0.6666666666666666 0.04285714285714286 0.01  0.7222222222222222 0.04285714285714286 0.01  0.7777777777777778 0.04285714285714286 0.01  0.8333333333333334 0.04285714285714286 0.01  0.8888888888888888 0.04285714285714286 0.01  0.9444444444444444 0.04285714285714286 0.01  1 0.04285714285714286 0.01  0 0.05714285714285715 0.01  0.05555555555555555 0.05714285714285715 0.01  0.1111111111111111 0.05714285714285715 0.01  0.1666666666666667 0.05714285714285715 0.01  0.2222222222222222 0.05714285714285715 0.01  0.2777777777777778 0.05714285714285715 0.01  0.3333333333333333 0.05714285714285715 0.01  0.3888888888888889 0.05714285714285715 0.01  0.4444444444444444 0.05714285714285715 0.01  0.5 0.05714285714285715 0.01  0.5555555555555556 0.05714285714285715 0.01  0.6111111111111112 0.05714285714285715 0.01  0.6666666666666666 0.05714285714285715 0.01  0.7222222222222222 0.05714285714285715 0.01  0.7777777777777778 0.05714285714285715 0.01  0.8333333333333334 0.05714285714285715 0.01  0.8888888888888888 0.05714285714285715 0.01  0.9444444444444444 0.05714285714285715 0.01  1 0.05714285714285715 0.01  0 0.07142857142857142 0.01  0.05555555555555555 0.07142857142857142 0.01  0.1111111111111111 0.07142857142857142 0.01  0.1666666666666667 0.07142857142857142 0.01  0.2222222222222222 0.07142857142857142 0.01  0.2777777777777778 0.07142857142857142 0.01  0.3333333333333333 0.07142857142857142 0.01  0.3888888888888889 0.07142857142857142 0.01  0.4444444444444444 0.07142857142857142 0.01  0.5 0.07142857142857142 0.01  0.5555555555555556 0.07142857142857142 0.01  0.6111111111111112 0.07142857142857142 0.01  0.6666666666666666 0.07142857142857142 0.01  0.7222222222222222 0.07142857142857142 0.01  0.7777777777777778 0.07142857142857142 0.01  0.8333333333333334 0.07142857142857142 0.01  0.8888888888888888 0.07142857142857142 0.01  
[...]
<PointData  Vectors="f_33"> 
<DataArray  type="Float64"  Name="f_33"  NumberOfComponents="3" format="ascii">0.0000000000000000e+00 0.0000000000000000e+00 0.0000000000000000e+00  1.0196309697670101e-03 7.9149009093290083e-05 1.4327914105554446e-03  1.9044945664053409e-03 1.3631767214128020e-05 5.4853424018312504e-03  2.7121611642671639e-03 -9.2543430821539154e-05 1.1974354598442408e-02  3.4434118740244856e-03 -2.2419458234897198e-04 2.0667414673619468e-02  4.0993468169546075e-03 -3.7460404311457930e-04 3.1344306297285483e-02  4.6809679719456493e-03 -5.4002517221302668e-04 4.3789519451477972e-02  5.1897820830090454e-03 -7.1773694520703771e-04 5.7791955772241478e-02  5.6278946250604995e-03 -9.0543770687620583e-04 7.3145964843129102e-02  5.9980438900809887e-03 -1.1010450707081947e-03 8.9652853449747952e-02  6.3036382513898242e-03 -1.3026378092570276e-03 1.0712264741056744e-01  6.5487941645628696e-03 -1.5084493633630775e-03 1.2537602408275439e-01  6.7383700445038820e-03 -1.7168807622357759e-03 1.4424637147319605e-01  6.8779942188134701e-03 -1.9265211533698410e-03 1.6358194441816234e-01  6.9740867262371572e-03 -2.1361716960424729e-03 1.8324809506006662e-01  7.0338757835021618e-03 -2.3448717353658187e-03 2.0312955883094305e-01  7.0654143449284538e-03 -2.5519272857784446e-03 2.2313278124408023e-01  7.0776145537262440e-03 -2.7569375205640312e-03 2.4318829691815466e-01  7.0802317142363916e-03 -2.9598514972105365e-03 2.6325341172013245e-01  0.0000000000000000e+00 0.0000000000000000e+00 0.0000000000000000e+00  9.6641447641313753e-04 2.8300501008084276e-05 1.4745433962432084e-03  1.8650962121361612e-03 -3.1517029166766648e-05 5.5146562482268459e-03  2.6837650130231067e-03 -1.3342319594193902e-04 1.1974052860651598e-02  3.4253793075190767e-03 -2.6092382115150523e-04 2.0634423233179797e-02  4.0910006120211690e-03 -4.0724947860316534e-04 3.1279457643737608e-02  4.6816332774478539e-03 -5.6866816543835424e-04 4.3694953316341573e-02  5.1987785388641567e-03 -7.4248912791080146e-04 5.7670278760339921e-02  5.6445280214213970e-03 -9.2644461866271829e-04 7.2999951208606195e-02  6.0216025583023063e-03 -1.1184883870604964e-03 8.9485324121132664e-02  6.3333932227315169e-03 -1.3167375094493112e-03 1.0693641209623148e-01  6.5840013779890766e-03 -1.5194656795049864e-03 1.2517384556425395e-01  6.7782737359913569e-03 -1.7251157875360944e-03 1.4403093704173522e-01  6.9218311314392629e-03 -1.9323200685292532e-03 1.6335583890059688e-01  7.0210909588432303e-03 -2.1399235614823356e-03 1.8301377331367008e-01  7.0832837693848572e-03 -2.3470097328191428e-03 2.0288931640049665e-01  7.1164674019595590e-03 -2.5529281361971411e-03 2.2288872057337572e-01  7.1295624109662765e-03 -2.7573155928714162e-03 2.4294227769940116e-01  7.1324999575728097e-03 -2.9600439774308410e-03 2.6300693525178187e-01  0.0000000000000000e+00 0.0000000000000000e+00 0.0000000000000000e+00  9.5598004489338962e-04 -1.0375208764153511e-05 1.4904623235364050e-03  1.8565653870115807e-03 -7.5235391944595073e-05 5.5145538275350172e-03  2.6818635960452458e-03 -1.7561133947529236e-04 1.1945477172324775e-02  3.4305813446461899e-03 -2.9976544954277547e-04 2.0575599453570386e-02  4.1030160294479364e-03 -4.4215745024175034e-04 3.1191481941773465e-02  4.6999709290518393e-03 -5.9950271455284975e-04 4.3579991734063780e-02  5.2228853754645206e-03 -7.6928431735484245e-04 5.7530888861946544e-02  5.6738311931414879e-03 -9.4931838028817041e-04 7.2838818853827592e-02  6.0555251802165292e-03 -1.1376135392913774e-03 8.9305151790941006e-02  6.3713627484645700e-03 -1.3323329304739948e-03 1.0673986299010137e-01  6.6254556274989258e-03 -1.5317943007134203e-03 1.2496350775366015e-01  6.8226662458351862e-03 -1.7344848043154798e-03 1.4380929421486238e-01  6.9686364499558281e-03 -1.9390816989941853e-03 1.6312524269193290e-01  7.0698100678806058e-03 -2.1444756382993186e-03 1.8277641537417444e-01  7.1334492565538190e-03 -2.3497955880534432e-03 2.0264719933885403e-01  7.1676460285487048e-03 -2.5544354886163031e-03 2.2264362646354846e-01  7.1813510324589937e-03 -2.7580750666226228e-03 2.4269572911802348e-01  7.1845382272234803e-03 -2.9605763659893520e-03 2.6276011431990504e-01  0.0000000000000000e+00 0.0000000000000000e+00 0.0000000000000000e+00  9.5284838414864839e-04 -4.3338989413990466e-05 1.4850009258631296e-03  1.8552339581975991e-03 -1.1698875917177461e-04 5.4841950559217367e-03  2.6866182908219594e-03 -2.1802694674087189e-04 1.1886404704910900e-02  3.4418889934265968e-03 -3.3961349058446856e-04 2.0488231589172474e-02  4.1205207949854151e-03 -4.7829853974743164e-04 3.1077665083070891e-02  4.7231608003278731e-03 -6.3158219252246737e-04 4.3442107414511731e-02  5.2512117382191338e-03 -7.9725576448119576e-04 5.7371512105580953e-02  5.7067381412670495e-03 -9.7327050749643988e-04 7.2660566501567839e-02  6.0924610175015171e-03 -1.1577096236824065e-03 8.9110607997591476e-02  6.4117871147503632e-03 -1.3487902590715055e-03 1.0653153565041582e-01  6.6688452831336429e-03 -1.5448777980793433e-03 1.2474379630221268e-01  6.8685204900337032e-03 -1.7445056378969008e-03 1.4358046101806257e-01  7.0164825570432771e-03 -1.9463974703568352e-03 1.6288938510854209e-01  7.1192088662610474e-03 -2.1494907815051475e-03 1.8253543748354567e-01  7.1840007061850101e-03 -2.3529611072273908e-03 2.0240278307964921e-01  7.2189928646715033e-03 -2.5562476793788234e-03 2.2239720197805940e-01  7.2331725264571864e-03 -2.7590763250026455e-03 2.4244844103097063e-01  7.2365462791232956e-03 -2.9613613742551005e-03 2.6251274792557378e-01  0.0000000000000000e+00 0.0000000000000000e+00 0.0000000000000000e+00  9.4814136923818094e-04 -7.4987065334735945e-05 1.4598892615256698e-03  1.8545365285228522e-03 -1.5800662952474901e-04 5.4250480403120506e-03  2.6928781327841839e-03 -2.6058250024186310e-04 1.1796999209327733e-02  3.4549495428477977e-03 -3.8003517912884709e-04 2.0371992336519498e-02  4.1397739784277418e-03 -5.1515905159567636e-04 3.0937507606175269e-02  4.7479999604067517e-03 -6.6439654624602220e-04 4.3280763860615031e-02  5.2810529102962807e-03 -8.2592384693865354e-04 5.7191629823437541e-02  5.7410117376776263e-03 -9.9786018326824058e-04 7.2464714295279883e-02  6.1306102711973509e-03 -1.1783768048995375e-03 8.8901259023062160e-02  6.4532705149570541e-03 -1.3657504569567767e-03 1.0631104428196188e-01  6.7131406406402373e-03 -1.5583966708205845e-03 1.2451437273551591e-01  6.9151297611742581e-03 -1.7548964327965778e-03 1.4334414450277036e-01  7.0649371142955681e-03 -1.9540208068008508e-03 1.6264801616707367e-01  7.1690750994184253e-03 -2.1547549678915339e-03 1.8229062940325610e-01  7.2348860320127963e-03 -2.3563219832958438e-03 2.0215589311844009e-01  7.2705513180891653e-03 -2.5582074010279047e-03 2.2214930298927632e-01  7.2851011835375059e-03 -2.7601860571052532e-03 2.4220029090280726e-01  7.2885913886077350e-03 -2.9622715817890929e-03 2.6226473635027081e-01  0.0000000000000000e+00 0.0000000000000000e+00 0.0000000000000000e+00  9.3851746847123179e-04 -1.0903428586498128e-04 1.4142480613734622e-03  1.8512395616497228e-03 -2.0028623466678455e-04 5.3369526098244226e-03  2.6978152743978162e-03 -3.0400350505018045e-04 1.1677177983401753e-02  3.4672373695039051e-03 -4.2120886983938873e-04 2.0226701159163162e-02  4.1585320177232208e-03 -5.5271581968080290e-04 3.0770772129747600e-02  4.7725219875420256e-03 -6.9784945007261585e-04 4.3095711608912311e-02  5.3107120938017793e-03 -8.5516551189317419e-04 5.6991003572615904e-02  5.7752147131580915e-03 -1.0229545718691729e-03 7.2251044810508688e-02  6.1687827457998961e-03 -1.1994786969247336e-03 8.8676912318703699e-02  6.4948548533891731e-03 -1.3830758897965115e-03 1.0607822240122730e-01  6.7575980193901363e-03 -1.5722128965500982e-03 1.2427509663083690e-01  6.9619442496728625e-03 -1.7655191242058807e-03 1.4310022968909586e-01  7.1136206767192043e-03 -1.9618137829786426e-03 1.6240104530226859e-01  7.2191731303836004e-03 -2.1601305894668864e-03 1.8204192355142237e-01  7.2859835815872768e-03 -2.3597413310677321e-03 2.0190648275173589e-01  7.3222810569300439e-03 -2.5601794331064341e-03 2.2189990005274432e-01  7.3371453905235542e-03 -2.7612717296441555e-03 2.4195126095435654e-01  7.3406983962294274e-03 -2.9631653744331271e-03 2.6201607362349399e-01  0.0000000000000000e+00 0.0000000000000000e+00 0.0000000000000000e+00  9.1930964092577392e-04 -1.4867309519563999e-04 1.3438475073384261e-03  1.8400031890424195e-03 -2.4571605468731955e-04 5.2176134319124904e-03  2.6960672021262540e-03 -3.4919529131730525e-04 1.1525803199537870e-02  3.4736468587374131e-03 -4.6352794608303075e-04 2.0051619090229702e-02  4.1721109980289960e-03 -5.9113558416477928e-04 3.0576892952646713e-02  4.7925267282886257e-03 -7.3200767554415947e-04 4.2886491261370382e-02  5.3364890856633478e-03 -8.8499886425936071e-04 5.6769258181330239e-02  5.8061432427283103e-03 -1.0485432897528674e-03 7.2019257924515551e-02  6.2042572579670153e-03 -1.2209844766121398e-03 8.8437337297138638e-02  6.5342810451376934e-03 -1.4007187734873894e-03 1.0583290417758993e-01  6.8003941712801337e-03 -1.5862635823766888e-03 1.2402586186915694e-01  7.0075448355291859e-03 -1.7762970701841682e-03 1.4284866448814421e-01  7.1614810837178043e-03 -1.9696873082214422e-03 1.6214846797895449e-01  7.2687750201499172e-03 -2.1655175079477698e-03 1.8178935556119818e-01  7.3368409006113675e-03 -2.3631095932553745e-03 2.0165461916037519e-01  7.3739495033642265e-03 -2.5620470163974533e-03 2.2164908094978489e-01  7.3892337019521607e-03 -2.7622087025236416e-03 2.4170144568356136e-01  7.3928678757292261e-03 -2.9639031060386158e-03 2.6176684870829620e-01  0.0000000000000000e+00 0.0000000000000000e+00 0.0000000000000000e+00  8.7094161030796960e-04 -1.9133237314379587e-04 1.2467040330503617e-03  1.7990129231281774e-03 -2.9181879071713592e-04 5.0673367247075374e-03  2.6662375789815672e-03 -3.9373178856744222e-04 1.1344415546753117e-02  3.4541017374290755e-03 -5.0466568882491481e-04 1.9848645073366176e-02  4.1621999708945151e-03 -6.2826484830583022e-04 3.0357810949567080e-02  4.7916294735352617e-03 -7.6493497274917645e-04 4.2654961090087373e-02  5.3439602094452069e-03 -9.1372204421206983e-04 5.6528121604693997e-02  5.8213109378423182e-03 -1.0731602878877504e-03 7.1770933163866860e-02  6.2264277663335215e-03 -1.2416569976350105e-03 8.8183958648860514e-02  6.5627422233640459e-03 -1.4176590682961612e-03 1.0557635806884763e-01  6.8344188106173520e-03 -1.5997304918635765e-03 1.2376778184835535e-01  7.0463943385027311e-03 -1.7865955187496411e-03 1.4259041013723231e-01  7.2044096643195752e-03 -1.9771689161570535e-03 1.6189109764314541e-01  7.3150344372503433e-03 -2.1705814549813607e-03 1.8153359685962303e-01  7.3856858572330184e-03 -2.3662035905304213e-03 2.0140083887182164e-01  7.4246441840703989e-03 -2.5636694720211875e-03 2.2139725492514034e-01  7.4410817151189159e-03 -2.7628998692420708e-03 2.4145111675034522e-01  7.4451104951890916e-03 -2.9643976278513318e-03 2.6151718584984901e-01  0.0000000000000000e+00 0.0000000000000000e+00 0.0000000000000000e+00  4.8335639772550124e-04 4.1835703560100670e-05 1.3895251112353677e-03  9.1858821743263182e-04 -1.4363305831029075e-05 5.4453345091481581e-03  1.3141052373589535e-03 -9.8515300965083233e-05 1.1937613957047370e-02  1.6725331060879552e-03 -2.0640341374434561e-04 2.0634078664450880e-02  1.9944268830063118e-03 -3.3381276490321684e-04 3.1314401885560575e-02  2.2801747168068325e-03 -4.7780616823298120e-04 4.3763022206839849e-02  2.5304491272072961e-03 -6.3595576857027394e-04 5.7768802143167625e-02  2.7462385037757236e-03 -8.0606839269246010e-04 7.3126058542678590e-02  2.9288485301126876e-03 -9.8609466930876951e-04 8.9636067101253700e-02  3.0799135512881736e-03 -1.1741094362714352e-03 1.0710882193416593e-01  3.2014126653273716e-03 -1.3683186881553919e-03 1.2536496737195646e-01  3.2956855056338109e-03 -1.5670766823793706e-03 1.4423785701261674e-01  3.3654457305980112e-03 -1.7689072367811367e-03 1.6357571006821253e-01  3.4137917051565415e-03 -1.9725270678836726e-03 1.8324384205502564e-01  3.4442147475138686e-03 -2.1768705265415716e-03 2.0312695093356434e-01  3.4606074662604938e-03 -2.3811146445827883e-03 2.2313144351467068e-01  3.4672790889118113e-03 -2.5846943821370288e-03 2.4318781170815978e-01  3.4689008239196174e-03 -2.7873312034344682e-03 2.6325319806464847e-01  0.0000000000000000e+00 0.0000000000000000e+00 0.0000000000000000e+00  4.6661591390458285e-04 9.3032726591059007e-06 1.4272428277814081e-03  9.1628234193530205e-04 -4.0881629151475570e-05 5.4745550521748459e-03  1.3195777382857860e-03 -1.2262237722811723e-04 1.1937567059202273e-02  1.6850883259562186e-03 -2.2813541170932310e-04 2.0601419421618621e-02  2.0133648689346470e-03 -3.5318532658657717e-04 3.1249873453089144e-02  2.3048573708219461e-03 -4.9485210520126268e-04 4.3668736922818793e-02  2.5602709708484692e-03 -6.5073153858351837e-04 5.7647358633663902e-02  2.7806115933730175e-03 -8.1865261433115150e-04 7.2980230332135243e-02  2.9671979386923547e-03 -9.9658776860748338e-04 8.9468677476501168e-02  3.1216784062373681e-03 -1.1826342579291744e-03 1.0692268452785209e-01  3.2460496436573717e-03 -1.3750214044960401e-03 1.2516284989306287e-01  3.3426734603849810e-03 -1.5721276709875522e-03 1.4402245247655657e-01  3.4142909394870567e-03 -1.7725018058085387e-03 1.6334960975011564e-01  3.4640335281902329e-03 -1.9748859840438403e-03 1.8300950797193982e-01  3.4954312754106060e-03 -2.1782403712334850e-03 2.0288668658067083e-01  3.5124195836831757e-03 -2.3817681867930279e-03 2.2288736048096450e-01  3.5193562571190565e-03 -2.5849301895353575e-03 2.4294177943127460e-01  3.5210829184945257e-03 -2.7874163267261188e-03 2.6300676944703127e-01  0.0000000000000000e+00 0.0000000000000000e+00 0.0000000000000000e+00  4.6341057297259400e-04 -1.2379265589231935e-05 1.4421266773994093e-03  9.1776869119400992e-04 -6.4235686865664075e-05 5.4730583868765571e-03  1.3279193740129750e-03 -1.4494954328298260e-04 1.1908464981808071e-02  1.6998805371052415e-03 -2.4860769714246981e-04 2.0542370849308184e-02  2.0340992780435519e-03 -3.7155995167410875e-04 3.1161787367738055e-02  2.3309770411331430e-03 -5.1107552910696988e-04 4.3553712855485489e-02  2.5912124742194648e-03 -6.6482783796122092e-04 5.7507930671831117e-02  2.8158169991888936e-03 -8.3068525603005030e-04 7.2819075704278119e-02  3.0061201483912309e-03 -1.0066473876236494e-03 8.9288495250411493e-02  3.1637859449034165e-03 -1.1908350601231791e-03 1.0672613631867359e-01  3.2908316287383796e-03 -1.3815004870446131e-03 1.2495252278490067e-01  3.3896448068301702e-03 -1.5770452751607991e-03 1.4380082930873173e-01  3.4629978127906579e-03 -1.7760417782959840e-03 1.6311904126994287e-01  3.5140590073056682e-03 -1.9772561330615311e-03 1.8277218482694588e-01  3.5464008335478361e-03 -2.1796725184800368e-03 2.0264461023386970e-01  3.5640046040229969e-03 -2.3825182489351808e-03 2.2264231188426151e-01  3.5712747642341028e-03 -2.5852805185977274e-03 2.4269528052127401e-01  3.5731419772924724e-03 -2.7876510265315070e-03 2.6276001432528356e-01  0.0000000000000000e+00 0.0000000000000000e+00 0.0000000000000000e+00  4.6435956741910028e-04 -3.0141213727156363e-05 1.4360020701323850e-03  9.2262345350704216e-04 -8.5638193291286645e-05 5.4417588407770848e-03  1.3390963390491303e-03 -1.6647160819202150e-04 1.1848810509534197e-02  1.7172148799407217e-03 -2.6878899640806289e-04 2.0454655657347446e-02  2.0570921658283753e-03 -3.8984325432742562e-04 3.1047736482035033e-02  2.3590723677031876e-03 -5.2729237144248393e-04 4.3415652723761272e-02  2.6238532751456790e-03 -6.7896007417693168e-04 5.7348413904042148e-02  2.8524554490084227e-03 -8.4278005763417424e-04 7.2640710176722870e-02  3.0462222814020674e-03 -1.0167882471545898e-03 8.9093861201472210e-02  3.2068363379195454e-03 -1.1991322433604070e-03 1.0651773948932300e-01  3.3363384174404250e-03 -1.3880881708016140e-03 1.2473276097291938e-01  3.4371449670427810e-03 -1.5820809829221775e-03 1.4357196328689723e-01  3.5120626760150328e-03 -1.7797065304574486e-03 1.6288316666329514e-01  3.5642999736273514e-03 -1.9797546557820847e-03 1.8253120376591489e-01  3.5974750868553789e-03 -2.1812330792173869e-03 2.0240020247075377e-01  3.6156193515180005e-03 -2.3833923654781207e-03 2.2239590537789664e-01  3.6231855564985895e-03 -2.5857472547467122e-03 2.4244801888870371e-01  3.6251674367479836e-03 -2.7880278888660712e-03 2.6251268978335407e-01  0.0000000000000000e+00 0.0000000000000000e+00 0.0000000000000000e+00  4.6493073545445603e-04 -4.7108103943016775e-05 1.4109293270689795e-03  9.2813009750990227e-04 -1.0647235881615294e-04 5.3821707258804386e-03  1.3511317085747774e-03 -1.8792675474955627e-04 1.1758958321536965e-02  1.7354716782077531e-03 -2.8914787649239441e-04 2.0338083453568054e-02  2.0809731851699938e-03 -4.0839591457500393e-04 3.0907325278864573e-02  2.3879884913201770e-03 -5.4379874332217721e-04 4.3254103809492760e-02  2.6572363009644876e-03 -6.9337312957993657e-04 5.7168359743368376e-02  2.8897539149437650e-03 -8.5513583425982987e-04 7.2444712997362812e-02  3.0869017513959975e-03 -1.0271661706157441e-03 8.8884390991842976e-02  3.2503825694768225e-03 -1.2076413412505840e-03 1.0629714867096093e-01  3.3822618139726602e-03 -1.3948625859940751e-03 1.2450325811119829e-01  3.4849856635268146e-03 -1.5872787977112613e-03 1.4333558597075344e-01  3.5613960011442861e-03 -1.7835096961084523e-03 1.6264175358640137e-01  3.6147421819501930e-03 -1.9823691367581663e-03 1.8228636616762786e-01  3.6486894108274832e-03 -2.1828886458630605e-03 2.0215329531236154e-01  3.6673218201315055e-03 -2.3843419856673545e-03 2.2214799915132841e-01  3.6751441016152618e-03 -2.5862725584754544e-03 2.4219987063059167e-01  3.6772059341767032e-03 -2.7884787073088188e-03 2.6226469236851629e-01  0.0000000000000000e+00 0.0000000000000000e+00 0.0000000000000000e+00  4.6319240993933640e-04 -6.5627144549645921e-05 1.3663676206158676e-03  9.3237454781733970e-04 -1.2810325893937560e-04 5.2943030149768351e-03  1.3624301870567217e-03 -2.1000625563351508e-04 1.1639082077687607e-02  1.7532189797132343e-03 -3.1007336689932717e-04 2.0192699209474068e-02  2.1044668259798433e-03 -4.2747786831224161e-04 3.0740501225470705e-02  2.4166069439617598e-03 -5.6079102595612347e-04 4.3068970698672548e-02  2.6903977790202023e-03 -7.0822277215352211e-04 5.6967658836190767e-02  2.9268981858638324e-03 -8.6787626979798165e-04 7.2230974007097742e-02  3.1274868181051258e-03 -1.0378763870728315e-03 8.8659979516551829e-02  3.2938865727970856e-03 -1.2164311608491131e-03 1.0606426667073821e-01  3.4281869513643690e-03 -1.4018677396069456e-03 1.2426392659566861e-01  3.5328630494586700e-03 -1.5926595813951212e-03 1.4309162056085509e-01  3.6107910419534992e-03 -1.7874508571892656e-03 1.6239473705785459e-01  3.6652602911780370e-03 -1.9850800573725296e-03 1.8203761970836665e-01  3.6999822682779859e-03 -2.1846032861696984e-03 2.0190384949138215e-01  3.7190951325303768e-03 -2.3853180739707115e-03 2.2189856590599707e-01  3.7271602669222367e-03 -2.5867968546777580e-03 2.4195081714726352e-01  3.7292771708401081e-03 -2.7889279011323095e-03 2.6201601402946634e-01  0.0000000000000000e+00 0.0000000000000000e+00 0.0000000000000000e+00  4.5763036344216655e-04 -8.8502232057714936e-05 1.2985373816909230e-03  9.3328455657421916e-04 -1.5237794208715677e-04 5.1761520303629420e-03  1.3708283921383658e-03 -2.3392774247542507e-04 1.1488360072693660e-02  1.7683440380154747e-03 -3.3243454732862117e-04 2.0018057189592053e-02  2.1256084215913952e-03 -4.4776533649606022e-04 3.0546949921733305e-02  2.4431512362176147e-03 -5.7882342785472106e-04 4.2860003883159227e-02  2.7217622904204416e-03 -7.2397058400420784e-04 5.6746108040205925e-02  2.9625154126364257e-03 -8.8138321946439069e-04 7.1999330496646460e-02  3.1668032908183769e-03 -1.0492280490512784e-03 8.8420501995401565e-02  3.3363656712099847e-03 -1.2257434096603211e-03 1.0581900496855917e-01  3.4733130444022250e-03 -1.4092829737582268e-03 1.2401471252431426e-01  3.5801463597351221e-03 -1.5983458356971115e-03 1.4284004587809945e-01  3.6597729721032195e-03 -1.7916018970101054e-03 1.6214212635191078e-01  3.7155190900999492e-03 -1.987915