<?xml version="1.0"?>
<VTKFile type="UnstructuredGrid"  version="0.1"  >
<UnstructuredGrid>
<Piece  NumberOfPoints="760" NumberOfCells="3024">
<Points>
<DataArray  type="Float64"  NumberOfComponents="3"  format="ascii">0 0 0  0.05555555555555555 0 0  0.1111111111111111 0 0  0.1666666666666667 0 0  0.2222222222222222 0 0  0.2777777777777778 0 0  0.3333333333333333 0 0  0.3888888888888889 0 0  0.4444444444444444 0 0  0.5 0 0  0.5555555555555556 0 0  0.6111111111111112 0 0  0.6666666666666666 0 0  0.7222222222222222 0 0  0.7777777777777778 0 0  0.8333333333333334 0 0  0.8888888888888888 0 0  0.9444444444444444 0 0  1 0 0  0 0.01428571428571429 0  0.05555555555555555 0.01428571428571429 0  0.1111111111111111 0.01428571428571429 0  0.1666666666666667 0.01428571428571429 0  0.2222222222222222 0.01428571428571429 0  0.2777777777777778 0.01428571428571429 0  0.3333333333333333 0.01428571428571429 0  0.3888888888888889 0.01428571428571429 0  0.4444444444444444 0.01428571428571429 0  0.5 0.01428571428571429 0  0.5555555555555556 0.01428571428571429 0  0.6111111111111112 0.01428571428571429 0  0.6666666666666666 0.01428571428571429 0  0.7222222222222222 0.01428571428571429 0  0.7777777777777778 0.01428571428571429 0  0.8333333333333334 0.01428571428571429 0  0.8888888888888888 0.01428571428571429 0  0.9444444444444444 0.01428571428571429 0  1 0.01428571428571429 0  0 0.02857142857142857 0  0.05555555555555555 0.02857142857142857 0  0.1111111111111111 0.02857142857142857 0  0.1666666666666667 0.02857142857142857 0  0.2222222222222222 0.02857142857142857 0  0.2777777777777778 0.02857142857142857 0  0.3333333333333333 0.02857142857142857 0  0.3888888888888889 0.02857142857142857 0  0.4444444444444444 0.02857142857142857 0  0.5 0.02857142857142857 0  0.5555555555555556 0.02857142857142857 0  0.6111111111111112 0.02857142857142857 0  0.6666666666666666 0.02857142857142857 0  0.7222222222222222 0.02857142857142857 0  0.7777777777777778 0.02857142857142857 0  0.8333333333333334 0.02857142857142857 0  0.8888888888888888 0.02857142857142857 0  0.9444444444444444 0.02857142857142857 0  1 0.02857142857142857 0  0 0.04285714285714286 0  0.05555555555555555 0.04285714285714286 0  0.1111111111111111 0.04285714285714286 0  0.1666666666666667 0.04285714285714286 0  0.2222222222222222 0.04285714285714286 0  0.2777777777777778 0.04285714285714286 0  0.3333333333333333 0.04285714285714286 0  0.3888888888888889 0.04285714285714286 0  0.4444444444444444 0.04285714285714286 0  0.5 0.04285714285714286 0  0.5555555555555556 0.04285714285714286 0  0.6111111111111112 0.04285714285714286 0  0.6666666666666666 0.04285714285714286 0  0.7222222222222222 0.04285714285714286 0  0.7777777777777778 0.04285714285714286 0  0.8333333333333334 0.04285714285714286 0  0.8888888888888888 0.04285714285714286 0  0.9444444444444444 0.04285714285714286 0  1 0.04285714285714286 0  0 0.05714285714285715 0  0.05555555555555555 0.05714285714285715 0  0.1111111111111111 0.05714285714285715 0  0.1666666666666667 0.05714285714285715 0  0.2222222222222222 0.05714285714285715 0  0.2777777777777778 0.05714285714285715 0  0.3333333333333333 0.05714285714285715 0  0.3888888888888889 0.05714285714285715 0  0.4444444444444444 0.05714285714285715 0  0.5 0.05714285714285715 0  0.5555555555555556 0.05714285714285715 0  0.6111111111111112 0.05714285714285715 0  0.6666666666666666 0.05714285714285715 0  0.7222222222222222 0.05714285714285715 0  0.7777777777777778 0.05714285714285715 0  0.8333333333333334 0.05714285714285715 0  0.8888888888888888 0.05714285714285715 0  0.9444444444444444 0.05714285714285715 0  1 0.05714285714285715 0  0 0.07142857142857142 0  0.05555555555555555 0.07142857142857142 0  0.1111111111111111 0.07142857142857142 0  0.1666666666666667 0.07142857142857142 0  0.2222222222222222 0.07142857142857142 0  0.2777777777777778 0.07142857142857142 0  0.3333333333333333 0.07142857142857142 0  0.3888888888888889 0.07142857142857142 0  0.4444444444444444 0.07142857142857142 0  0.5 0.07142857142857142 0  0.5555555555555556 0.07142857142857142 0  0.6111111111111112 0.07142857142857142 0  0.6666666666666666 0.07142857142857142 0  0.7222222222222222 0.07142857142857142 0  0.7777777777777778 0.07142857142857142 0  0.8333333333333334 0.07142857142857142 0  0.8888888888888888 0.07142857142857142 0  0.9444444444444444 0.07142857142857142 0  1 0.07142857142857142 0  0 0.08571428571428573 0  0.05555555555555555 0.08571428571428573 0  0.1111111111111111 0.08571428571428573 0  0.1666666666666667 0.08571428571428573 0  0.2222222222222222 0.08571428571428573 0  0.2777777777777778 0.08571428571428573 0  0.3333333333333333 0.08571428571428573 0  0.3888888888888889 0.08571428571428573 0  0.4444444444444444 0.08571428571428573 0  0.5 0.08571428571428573 0  0.5555555555555556 0.08571428571428573 0  0.6111111111111112 0.08571428571428573 0  0.6666666666666666 0.08571428571428573 0  0.7222222222222222 0.08571428571428573 0  0.7777777777777778 0.08571428571428573 0  0.8333333333333334 0.08571428571428573 0  0.8888888888888888 0.08571428571428573 0  0.9444444444444444 0.08571428571428573 0  1 0.08571428571428573 0  0 0.1 0  0.05555555555555555 0.1 0  0.1111111111111111 0.1 0  0.1666666666666667 0.1 0  0.2222222222222222 0.1 0  0.2777777777777778 0.1 0  0.3333333333333333 0.1 0  0.3888888888888889 0.1 0  0.4444444444444444 0.1 0  0.5 0.1 0  0.5555555555555556 0.1 0  0.6111111111111112 0.1 0  0.6666666666666666 0.1 0  0.7222222222222222 0.1 0  0.7777777777777778 0.1 0  0.8333333333333334 0.1 0  0.8888888888888888 0.1 0  0.9444444444444444 0.1 0  1 0.1 0  0 0 0.01  0.05555555555555555 0 0.01  0.1111111111111111 0 0.01  0.1666666666666667 0 0.01  0.2222222222222222 0 0.01  0.2777777777777778 0 0.01  0.3333333333333333 0 0.01  0.3888888888888889 0 0.01  0.4444444444444444 0 0.01  0.5 0 0.01  0.5555555555555556 0 0.01  0.6111111111111112 0 0.01  0.6666666666666666 0 0.01  0.7222222222222222 0 0.01  0.7777777777777778 0 0.01  0.8333333333333334 0 0.01  0.8888888888888888 0 0.01  0.9444444444444444 0 0.01  1 0 0.01  0 0.01428571428571429 0.01  0.05555555555555555 0.01428571428571429 0.01  0.1111111111111111 0.01428571428571429 0.01  0.1666666666666667 0.01428571428571429 0.01  0.2222222222222222 0.01428571428571429 0.01  0.2777777777777778 0.01428571428571429 0.01  0.3333333333333333 0.01428571428571429 0.01  0.3888888888888889 0.01428571428571429 0.01  0.4444444444444444 0.01428571428571429 0.01  0.5 0.01428571428571429 0.01  0.5555555555555556 0.01428571428571429 0.01  0.6111111111111112 0.01428571428571429 0.01  0.6666666666666666 0.01428571428571429 0.01  0.7222222222222222 0.01428571428571429 0.01  0.7777777777777778 0.01428571428571429 0.01  0.8333333333333334 0.01428571428571429 0.01  0.8888888888888888 0.01428571428571429 0.01  0.9444444444444444 0.01428571428571429 0.01  1 0.01428571428571429 0.01  0 0.02857142857142857 0.01  0.05555555555555555 0.02857142857142857 0.01  0.1111111111111111 0.02857142857142857 0.01  0.1666666666666667 0.02857142857142857 0.01  0.2222222222222222 0.02857142857142857 0.01  0.2777777777777778 0.02857142857142857 0.01  0.3333333333333333 0.02857142857142857 0.01  0.3888888888888889 0.02857142857142857 0.01  0.4444444444444444 0.02857142857142857 0.01  0.5 0.02857142857142857 0.01  0.5555555555555556 0.02857142857142857 0.01  0.6111111111111112 0.02857142857142857 0.01  0.6666666666666666 0.02857142857142857 0.01  0.7222222222222222 0.02857142857142857 0.01  0.7777777777777778 0.02857142857142857 0.01  0.8333333333333334 0.02857142857142857 0.01  0.8888888888888888 0.02857142857142857 0.01  0.9444444444444444 0.02857142857142857 0.01  1 0.02857142857142857 0.01  0 0.04285714285714286 0.01  0.05555555555555555 0.04285714285714286 0.01  0.1111111111111111 0.04285714285714286 0.01  0.1666666666666667 0.04285714285714286 0.01  0.2222222222222222 0.04285714285714286 0.01  0.2777777777777778 0.04285714285714286 0.01  0.3333333333333333 0.04285714285714286 0.01  0.3888888888888889 0.04285714285714286 0.01  0.4444444444444444 0.04285714285714286 0.01  0.5 0.04285714285714286 0.01  0.5555555555555556 0.04285714285714286 0.01  0.6111111111111112 0.04285714285714286 0.01  0.6666666666666666 0.04285714285714286 0.01  0.7222222222222222 0.04285714285714286 0.01  0.7777777777777778 0.04285714285714286 0.01  0.8333333333333334 0.04285714285714286 0.01  0.8888888888888888 0.04285714285714286 0.01  0.9444444444444444 0.04285714285714286 0.01  1 0.04285714285714286 0.01  0 0.05714285714285715 0.01  0.05555555555555555 0.05714285714285715 0.01  0.1111111111111111 0.05714285714285715 0.01  0.1666666666666667 0.05714285714285715 0.01  0.2222222222222222 0.05714285714285715 0.01  0.2777777777777778 0.05714285714285715 0.01  0.3333333333333333 0.05714285714285715 0.01  0.3888888888888889 0.05714285714285715 0.01  0.4444444444444444 0.05714285714285715 0.01  0.5 0.05714285714285715 0.01  0.5555555555555556 0.05714285714285715 0.01  0.6111111111111112 0.05714285714285715 0.01  0.6666666666666666 0.05714285714285715 0.01  0.7222222222222222 0.05714285714285715 0.01  0.7777777777777778 0.05714285714285715 0.01  0.8333333333333334 0.05714285714285715 0.01  0.8888888888888888 0.05714285714285715 0.01  0.9444444444444444 0.05714285714285715 0.01  1 0.05714285714285715 0.01  0 0.07142857142857142 0.01  0.05555555555555555 0.07142857142857142 0.01  0.1111111111111111 0.07142857142857142 0.01  0.1666666666666667 0.07142857142857142 0.01  0.2222222222222222 0.07142857142857142 0.01  0.2777777777777778 0.07142857142857142 0.01  0.3333333333333333 0.07142857142857142 0.01  0.3888888888888889 0.07142857142857142 0.01  0.4444444444444444 0.07142857142857142 0.01  0.5 0.07142857142857142 0.01  0.5555555555555556 0.07142857142857142 0.01  0.6111111111111112 0.07142857142857142 0.01  0.6666666666666666 0.07142857142857142 0.01  0.7222222222222222 0.07142857142857142 0.01  0.7777777777777778 0.07142857142857142 0.01  0.8333333333333334 0.07142857142857142 0.01  0.8888888888888888 0.07142857142857142 0.01  
[...]
<PointData  Vectors="f_33"> 
<DataArray  type="Float64"  Name="f_33"  NumberOfComponents="3" format="ascii">0.0000000000000000e+00 0.0000000000000000e+00 0.0000000000000000e+00  -2.7625922693994562e-03 -1.6479977440060910e-04 -3.9861238062956191e-03  -5.1542061269528178e-03 1.5089542711432149e-04 -1.5279304996453162e-02  -7.3357721621777590e-03 6.6013550035886942e-04 -3.3363228895376511e-02  -9.3106592272031181e-03 1.3141260562365856e-03 -5.7589899158455554e-02  -1.1082127494351736e-02 2.0869234312830415e-03 -8.7345666039757214e-02  -1.2652908519393942e-02 2.9609002427889212e-03 -1.2203004053342092e-01  -1.4027063232546273e-02 3.9214118602776500e-03 -1.6105481426781790e-01  -1.5210269872150451e-02 4.9551502364684257e-03 -2.0384693213381772e-01  -1.6209917653482453e-02 6.0496395269975158e-03 -2.4985269352413872e-01  -1.7035206798779630e-02 7.1931348675829702e-03 -2.9854266072610713e-01  -1.7697251364810828e-02 8.3746699009409828e-03 -3.4941704531224693e-01  -1.8209171359888629e-02 9.5841622067936866e-03 -4.0201144977919356e-01  -1.8586168966883782e-02 1.0812543016776626e-02 -4.5590288214466640e-01  -1.8845588092777327e-02 1.2051898717906073e-02 -5.1071597989046391e-01  -1.9006959429885516e-02 1.3295620484514874e-02 -5.6612939056205291e-01  -1.9092046480410615e-02 1.4538561216375293e-02 -6.2188226772173760e-01  -1.9124941556544064e-02 1.5777188186580415e-02 -6.7778091506905791e-01  -1.9131984964691044e-02 1.7009859939497145e-02 -7.3370628733844789e-01  0.0000000000000000e+00 0.0000000000000000e+00 0.0000000000000000e+00  -2.6392757658115279e-03 -2.8411203191466094e-05 -4.1036060118938749e-03  -5.0897371723649353e-03 2.7172130447526710e-04 -1.5362466251995017e-02  -7.3215523001936454e-03 7.6944789472911429e-04 -3.3363791442795464e-02  -9.3432234491074798e-03 1.4123096632330651e-03 -5.7499271859817840e-02  -1.1157759739324541e-02 2.1741690732343224e-03 -8.7166163749037642e-02  -1.2767904912312526e-02 3.0374280621815850e-03 -1.2176762418661514e-01  -1.4177740965608988e-02 3.9875222085286018e-03 -1.6071674623632254e-01  -1.5392958951475074e-02 5.0112345288079122e-03 -2.0344094276253211e-01  -1.6420965658787021e-02 6.0961862186992488e-03 -2.4938664458648543e-01  -1.7270995456015580e-02 7.2307352343711486e-03 -2.9802438447517993e-01  -1.7954219960028526e-02 8.4040232663451595e-03 -3.4885424522265401e-01  -1.8483844344583226e-02 9.6060802678932383e-03 -4.0141162110674822e-01  -1.8875186563426207e-02 1.0827953144813511e-02 -4.5527323685102483e-01  -1.9145739238440703e-02 1.2061846085458241e-02 -5.1006337003780877e-01  -1.9315215520969726e-02 1.3301268747764508e-02 -5.6546022657838724e-01  -1.9405588901270223e-02 1.4541191414467742e-02 -6.2120242442350782e-01  -1.9441197338196936e-02 1.5778183488942131e-02 -6.7709559440271438e-01  -1.9449156728460610e-02 1.7010370323142055e-02 -7.3301969287197788e-01  0.0000000000000000e+00 0.0000000000000000e+00 0.0000000000000000e+00  -2.6327572150568082e-03 7.5835869935314277e-05 -4.1500995592367185e-03  -5.1097242226180494e-03 3.9000523833774263e-04 -1.5364209623074707e-02  -7.3796893249918607e-03 8.8380836246491575e-04 -3.3286105483909180e-02  -9.4391461377191666e-03 1.5176531578552455e-03 -5.7337146243490490e-02  -1.1288834747326126e-02 2.2688548425359874e-03 -8.6922650698514126e-02  -1.2930942260990660e-02 3.1210612522007916e-03 -1.2144875979576167e-01  -1.4369414801286420e-02 4.0601905830380961e-03 -1.6032965758925752e-01  -1.5609939864480255e-02 5.0732572576896460e-03 -2.0299311546148019e-01  -1.6659979143236130e-02 6.1480328826515000e-03 -2.4888561229255685e-01  -1.7528861199462509e-02 7.2730010901667953e-03 -2.9747757353408483e-01  -1.8227885800008951e-02 8.4374235461977427e-03 -3.4826887501403808e-01  -1.8770419265460317e-02 9.6314506788390385e-03 -4.0079462266882832e-01  -1.9171974268006299e-02 1.0846251917044242e-02 -4.5463117585548368e-01  -1.9450272650872881e-02 1.2074155580917140e-02 -5.0940236898873315e-01  -1.9625291080027491e-02 1.3308795173219109e-02 -5.6478588383891637e-01  -1.9719293857320765e-02 1.4545262301517453e-02 -6.2051972647389642e-01  -1.9756918679283718e-02 1.5780245458885029e-02 -6.7640880700342354e-01  -1.9765645282516741e-02 1.7011823749727147e-02 -7.3233213087720417e-01  0.0000000000000000e+00 0.0000000000000000e+00 0.0000000000000000e+00  -2.6454364252774983e-03 1.6596090497605331e-04 -4.1371603520907081e-03  -5.1490030731639030e-03 5.0445210912341957e-04 -1.5281828055145420e-02  -7.4557454395113489e-03 1.0002984173766143e-03 -3.3123574347199793e-02  -9.5514848806972363e-03 1.6271626152243993e-03 -5.7095606325995196e-02  -1.1434635571959553e-02 2.3681928958174106e-03 -8.6607241217431283e-02  -1.3106958876670212e-02 3.2092358930234845e-03 -1.2106611705176622e-01  -1.4572336217422020e-02 4.1370691596868282e-03 -1.5988695770770187e-01  -1.5836486539478514e-02 5.1390823662254559e-03 -2.0249765244871923e-01  -1.6906949498808048e-02 6.2032534790456726e-03 -2.4834459103280668e-01  -1.7793167398879865e-02 7.3182152355651953e-03 -2.9689798869789369e-01  -1.8506586988100905e-02 8.4733606497012434e-03 -3.4765742152138773e-01  -1.9060754717433539e-02 9.6589675977546315e-03 -4.0015761608254180e-01  -1.9471397319561327e-02 1.0866333479055650e-02 -4.5397447457795315e-01  -1.9756485603366215e-02 1.2087915694104065e-02 -5.0873129548341511e-01  -1.9936280557897083e-02 1.3317476112253347e-02 -5.6410514417324298e-01  -2.0033360620066269e-02 1.4550231357594970e-02 -6.1983332751256315e-01  -2.0072675698197449e-02 1.5782998488252962e-02 -6.7571996090820452e-01  -2.0082020055995742e-02 1.7013991000384990e-02 -7.3164304502833410e-01  0.0000000000000000e+00 0.0000000000000000e+00 0.0000000000000000e+00  -2.6532878386166651e-03 2.5410240188478080e-04 -4.0695072161896304e-03  -5.1897492305488565e-03 6.1850213707845606e-04 -1.5119328518104200e-02  -7.5358007463842821e-03 1.1186683345219988e-03 -3.2876593785025686e-02  -9.6685325240388805e-03 1.7396162736981965e-03 -5.6773682743250717e-02  -1.1585138395983527e-02 2.4707377541148771e-03 -8.6218493368817900e-02  -1.3287408128789591e-02 3.3005187282145747e-03 -1.2061815667397616e-01  -1.4779323880457952e-02 4.2168115250132560e-03 -1.5938716232935260e-01  -1.6066696119300408e-02 5.2074735810500221e-03 -2.0195318268419757e-01  -1.7157166370415707e-02 6.2607278980923269e-03 -2.4776234319066487e-01  -1.8060301599120213e-02 7.3653731587455477e-03 -2.9628453051076614e-01  -1.8787701676837926e-02 8.5109420863250136e-03 -3.4701892149820918e-01  -1.9353097662971129e-02 9.6878451971758629e-03 -3.9949976898737394e-01  -1.9772434355403611e-02 1.0887511968180512e-02 -4.5330242403488302e-01  -2.0063935566230456e-02 1.2102532795761635e-02 -5.0804955451212030e-01  -2.0248151746169375e-02 1.3326802095494800e-02 -5.6341751488259451e-01  -2.0347985894735757e-02 1.4555665344324032e-02 -6.1914282179463342e-01  -2.0388716958334031e-02 1.5786075933279936e-02 -6.7502871335444548e-01  -2.0398491780313548e-02 1.7016524319770215e-02 -7.3095216014283204e-01  0.0000000000000000e+00 0.0000000000000000e+00 0.0000000000000000e+00  -2.6475482577760609e-03 3.5057400828075388e-04 -3.9446731603491707e-03  -5.2233951718048104e-03 7.3772669089449479e-04 -1.4876217337274879e-02  -7.6123538801436711e-03 1.2409462954845964e-03 -3.2544908469167307e-02  -9.7836137102423528e-03 1.8555095152567752e-03 -5.6370850656732294e-02  -1.1734440292526252e-02 2.5764222995352600e-03 -8.5755726664741974e-02  -1.3467144501457574e-02 3.3946388875037651e-03 -1.2010416711485129e-01  -1.4985967228621637e-02 4.2990722910345690e-03 -1.5882959291967597e-01  -1.6296862983511323e-02 5.2780581505674643e-03 -2.0135908833200467e-01  -1.7407592321251893e-02 6.3200734037218058e-03 -2.4713832222996476e-01  -1.8327850677509871e-02 7.4140885967211778e-03 -2.9563672689305681e-01  -1.9069389576472529e-02 8.5497805208857754e-03 -3.4635297713167357e-01  -1.9646121165247950e-02 9.7176960995021076e-03 -3.9882075591373950e-01  -2.0074204048722902e-02 1.0909400544486926e-02 -4.5261476800663830e-01  -2.0372110594737366e-02 1.2117621156563825e-02 -5.0735695486144083e-01  -2.0560676793941256e-02 1.3336389742904407e-02 -5.6272286361610946e-01  -2.0663133111870468e-02 1.4561186242403936e-02 -6.1844812556017414e-01  -2.0705109526418151e-02 1.5789108229037160e-02 -6.7433501454243949e-01  -2.0715155927537400e-02 1.7019029352038827e-02 -7.3025946258389396e-01  0.0000000000000000e+00 0.0000000000000000e+00 0.0000000000000000e+00  -2.6158368726668093e-03 4.6430926304389162e-04 -3.7508328297274165e-03  -5.2355973783791386e-03 8.6740261410509683e-04 -1.4546008194548802e-02  -7.6709249608039676e-03 1.3696762983558455e-03 -3.2125276339413172e-02  -9.8829354979583124e-03 1.9759554757012368e-03 -5.5884989165556433e-02  -1.1869903115904865e-02 2.6857247666659343e-03 -8.5217310165978957e-02  -1.3634856464389711e-02 3.4917932830213173e-03 -1.1952282094804614e-01  -1.5182324617388519e-02 4.3839098772451160e-03 -1.5821316389839010e-01  -1.6518403570621381e-02 5.3508122225510097e-03 -2.0071449977795769e-01  -1.7650961746438636e-02 6.3812064237408119e-03 -2.4647185873878147e-01  -1.8589807890209975e-02 7.4642281459398946e-03 -2.9495409483384721e-01  -1.9346827787421035e-02 8.5896981252182644e-03 -3.4565927718173584e-01  -1.9936096010252400e-02 9.7483021307247578e-03 -3.9812042090081834e-01  -2.0373965559406546e-02 1.0931744643386965e-02 -4.5191148701410638e-01  -2.0679137489355955e-02 1.2132894100653350e-02 -5.0665359211201944e-01  -2.0872712902976827e-02 1.3345925259689338e-02 -5.6202137607431346e-01  -2.0978233673252987e-02 1.4566460429261541e-02 -6.1774948310761757e-01  -2.1021697268877801e-02 1.5791742488433413e-02 -6.7363912854646724e-01  -2.1032038955492317e-02 1.7021109954760996e-02 -7.2956520319849250e-01  0.0000000000000000e+00 0.0000000000000000e+00 0.0000000000000000e+00  -2.5048311485299248e-03 5.8820879715309061e-04 -3.4823341171718448e-03  -5.1665736961328847e-03 1.0006830102988070e-03 -1.4129195681393350e-02  -7.6528074656458831e-03 1.4981660123653709e-03 -3.1621657291557914e-02  -9.9114012961844626e-03 2.0945327968072596e-03 -5.5321092357451356e-02  -1.1941287599044123e-02 2.7926957797708182e-03 -8.4608391347974488e-02  -1.3745609342313999e-02 3.5866269732552788e-03 -1.1887907210533633e-01  -1.5328861407688963e-02 4.4666118726470801e-03 -1.5754250174769868e-01  -1.6697116323434322e-02 5.4216704274740631e-03 -2.0002366396427762e-01  -1.7858247222093525e-02 6.4406901248951357e-03 -2.4576680018587446e-01  -1.8822093878103293e-02 7.5129515388635505e-03 -2.9424007594082741e-01  -1.9600599656534910e-02 8.6284095946608051e-03 -3.4494085774847971e-01  -2.0207925123488277e-02 9.7778830781612702e-03 -3.9740139928072271e-01  -2.0660539856662632e-02 1.0953211379460781e-02 -4.5119482402768629e-01  -2.0977294096365146e-02 1.2147400387249941e-02 -5.0594132876075804e-01  -2.1179473009702729e-02 1.3354765111350858e-02 -5.6131454951349857e-01  -2.1290841412789179e-02 1.4571074366524441e-02 -6.1704804276277758e-01  -2.1337728493712842e-02 1.5793695018971203e-02 -6.7294181953527987e-01  -2.1349192459306398e-02 1.7022509514201024e-02 -7.2886972908512204e-01  0.0000000000000000e+00 0.0000000000000000e+00 0.0000000000000000e+00  -1.2696649514083330e-03 -5.9911968528773406e-05 -3.8692564229495826e-03  -2.4077493122307701e-03 2.2974143425614506e-04 -1.5171293959743332e-02  -3.4405214849329573e-03 6.7758488188111052e-04 -3.3264040487836391e-02  -4.3762295587402560e-03 1.2653097931285650e-03 -5.7499885923905113e-02  -5.2165857022036547e-03 1.9739636811568866e-03 -8.7264900907420881e-02  -5.9626079819756960e-03 2.7881768433100037e-03 -1.2195846051597742e-01  -6.6160365636983029e-03 3.6941217151184556e-03 -1.6099225046817525e-01  -7.1794428236613937e-03 4.6787929389972152e-03 -2.0379312703280286e-01  -7.6562305399906433e-03 5.7298074541151517e-03 -2.4980730568525839e-01  -8.0506631402037353e-03 6.8354104716594330e-03 -2.9850526324558763e-01  -8.3679050029224159e-03 7.9845603570033400e-03 -3.4938712225768392e-01  -8.6140626957035612e-03 9.1670456675129967e-03 -4.0198839243151130e-01  -8.7962204575022622e-03 1.0373616963959525e-02 -4.5588598567909633e-01  -8.9224683802336981e-03 1.1596126734166601e-02 -5.1070444063676212e-01  -9.0019242311135238e-03 1.2827675014120927e-02 -5.6612230371267092e-01  -9.0447561196930672e-03 1.4062756848545818e-02 -6.2187862399059535e-01  -9.0622240859313825e-03 1.5297383385023669e-02 -6.7777958963203555e-01  -9.0664885189722117e-03 1.6529278194281832e-02 -7.3370570338677710e-01  0.0000000000000000e+00 0.0000000000000000e+00 0.0000000000000000e+00  -1.2473918017193370e-03 2.5159486946435452e-05 -3.9749207959413465e-03  -2.4458176651781086e-03 2.9865713528120765e-04 -1.5253448837077827e-02  -3.5199457599126372e-03 7.4017540045658861e-04 -3.3264616304634606e-02  -4.4933758114457613e-03 1.3217158479521983e-03 -5.7409555606811602e-02  -5.3676717297500617e-03 2.0242321438002759e-03 -8.7085732861542878e-02  -6.1440300995370860e-03 2.8323927003186446e-03 -1.2169633836174377e-01  -6.8243180407781328e-03 3.7324320759234311e-03 -1.6065441240251457e-01  -7.4112065608772492e-03 4.7114033719530407e-03 -2.0338729878068532e-01  -7.9082012346444724e-03 5.7569807064646325e-03 -2.4934135236136826e-01  -8.3196862990701729e-03 6.8574678858035580e-03 -2.9798702413159844e-01  -8.6509739482720852e-03 8.0018841797458232e-03 -3.4882430994425789e-01  -8.9083496288012397e-03 9.1800813212750375e-03 -4.0138851277677617e-01  -9.0991099723290603e-03 1.0382874933771514e-02 -4.5525626250951695e-01  -9.2315926754979322e-03 1.1602183941264917e-02 -5.1005173908665069e-01  -9.3151987323899926e-03 1.2831175781927502e-02 -5.6545304867660051e-01  -9.3604112611294921e-03 1.4064414304081247e-02 -6.2119870718463366e-01  -9.3788471228901157e-03 1.5297979441598884e-02 -6.7709423012586012e-01  -9.3834277837921178e-03 1.6529492864379047e-02 -7.3301923780052602e-01  0.0000000000000000e+00 0.0000000000000000e+00 0.0000000000000000e+00  -1.2606714725540017e-03 8.2179437227981143e-05 -4.0172862180217839e-03  -2.4935663973064356e-03 3.6037715512464094e-04 -1.5250215444779126e-02  -3.6064977031947726e-03 7.9935254194483658e-04 -3.3184451620175227e-02  -4.6159148088630300e-03 1.3760179199899403e-03 -5.7245890073388012e-02  -5.5229509202081315e-03 2.0729766119331290e-03 -8.6841096637328682e-02  -6.3286750466097184e-03 2.8754252263374054e-03 -1.2137658059294963e-01  -7.0349733345127924e-03 3.7698131020616173e-03 -1.6026659238381125e-01  -7.6445835987708341e-03 4.7433009776010320e-03 -2.0293887495809820e-01  -8.1611075609374310e-03 5.7836362994437710e-03 -2.4883984495460082e-01  -8.5890549292994590e-03 6.8791860184622558e-03 -2.9743985024694569e-01  -8.9338943898394588e-03 8.0190305259421075e-03 -3.4823868043952533e-01  -9.2021004849431251e-03 9.1930832752160092e-03 -4.0077134956663918e-01  -9.4011929636191750e-03 1.0392222814079196e-02 -4.5461412101391874e-01  -9.5397678219318917e-03 1.1608431926795552e-02 -5.0939073018339120e-01  -9.6275195053165622e-03 1.2834942056667556e-02 -5.6477875762157936e-01  -9.6752545773842440e-03 1.4066381704401366e-02 -6.2051610629712317e-01  -9.6949361430322956e-03 1.5298903542470196e-02 -6.7640757116320671e-01  -9.6999793361230990e-03 1.6530118737906118e-02 -7.3233185555628122e-01  0.0000000000000000e+00 0.0000000000000000e+00 0.0000000000000000e+00  -1.2843984913884412e-03 1.3002277438741756e-04 -4.0012447189924014e-03  -2.5500423617158797e-03 4.1821144761233862e-04 -1.5164106933731851e-02  -3.7004265375535947e-03 8.5771129592898741e-04 -3.3019283216933794e-02  -4.7450329630429637e-03 1.4308058746943914e-03 -5.7002464125737916e-02  -5.6840355212893654e-03 2.1226252152063752e-03 -8.6524215294608228e-02  -6.5183559849805901e-03 2.9194608433340532e-03 -1.2099272494064997e-01  -7.2499160020357339e-03 3.8081820064717275e-03 -1.5982287373300738e-01  -7.8815305802948689e-03 4.7761304516256084e-03 -2.0244255921945106e-01  -8.4169062045471570e-03 5.8111535792716136e-03 -2.4829812214305910e-01  -8.8606863336879553e-03 6.9016916501191848e-03 -2.9685970417422430e-01  -9.2185045190161501e-03 8.0368903519419822e-03 -3.4762679565637389e-01  -9.4970329458539983e-03 9.2067268224561745e-03 -4.0013403039423956e-01  -9.7040231660417177e-03 1.0402143681119642e-02 -4.5395721319598947e-01  -9.8483382634625138e-03 1.1615188347209619e-02 -5.0871954186968338e-01  -9.9399755149411195e-03 1.2839156434026300e-02 -5.6409797881711454e-01  -9.9900758719068065e-03 1.4068739936426137e-02 -6.1982972674141479e-01  -1.0010948339723966e-02 1.5300167996694558e-02 -6.7571878853876055e-01  -1.0016409035258052e-02 1.6531148949733159e-02 -7.3164288383024956e-01  0.0000000000000000e+00 0.0000000000000000e+00 0.0000000000000000e+00  -1.3066332768782382e-03 1.7729810110927229e-04 -3.9324500239981113e-03  -2.6080457633165396e-03 4.7607178952781997e-04 -1.4999257918865062e-02  -3.7965722238166920e-03 9.1733564946815788e-04 -3.2770037690949057e-02  -4.8765619446668575e-03 1.4874006082823180e-03 -5.6678690982029711e-02  -5.8474390476640518e-03 2.1741966240728032e-03 -8.6133937208133671e-02  -6.7101734507098668e-03 2.9653374871161744e-03 -1.2054346614847863e-01  -7.4667829392679021e-03 3.8482332305609965e-03 -1.5932196793741227e-01  -8.1201806329094413e-03 4.8104571506289249e-03 -2.0189714558798535e-01  -8.6741865546771831e-03 5.8399774173745781e-03 -2.4771508418964674e-01  -9.1335825400638490e-03 6.9253167317556421e-03 -2.9624559931771266e-01  -9.5041700663398097e-03 8.0556907737650216e-03 -3.4698778203724578e-01  -9.7928214678248970e-03 9.2211434241550021e-03 -3.9947579132818900e-01  -1.0007522443385833e-02 1.0412683868112227e-02 -4.5328487936137596e-01  -1.0157405533777645e-02 1.1622426508930229e-02 -5.0803761167427064e-01  -1.0252774061426788e-02 1.2843733344775817e-02 -5.6341023798766987e-01  -1.0305110837398995e-02 1.4071360799584102e-02 -6.1913916953356651e-01  -1.0327079432569285e-02 1.5301617619426404e-02 -6.7502753560036399e-01  -1.0332869499839099e-02 1.6532401936654152e-02 -7.3095203613592397e-01  0.0000000000000000e+00 0.0000000000000000e+00 0.0000000000000000e+00  -1.3225196224980488e-03 2.3052186207401975e-04 -3.8093829763818868e-03  -2.6626511646567373e-03 5.3778034013698603e-04 -1.4755663372221966e-02  -3.8908303582681223e-03 9.8016658826711751e-04 -3.2437184318362795e-02  -5.0068412450731733e-03 1.5468926112592774e-03 -5.6274683662081437e-02  -6.0099268266750041e-03 2.2284199735802062e-03 -8.5670105593449161e-02  -6.9013189846747029e-03 3.0136067720455979e-03 -1.2002852955619552e-01  -7.6831837587813465e-03 3.8904047777508551e-03 -1.5876356285112367e-01  -8.3585451270863365e-03 4.8466291834830420e-03 -2.0130232088700997e-01  -8.9313397823344888e-03 5.8703761303823968e-03 -2.4709043311014334e-01  -9.4064876871335166e-03 6.9502554609492577e-03 -2.9559726074760045e-01  -9.7899565467819086e-03 8.0755564080839028e-03 -3.4632139226823005e-01  -1.0088816535127363e-02 9.2363927535537450e-03 -3.9879641593533699e-01  -1.0311284955486690e-02 1.0423843334450329e-02 -4.5259693664396156e-01  -1.0466761209396273e-02 1.1630092766670409e-02 -5.0734479248531894e-01  -1.0565852581522501e-02 1.2848573088524102e-02 -5.6271542473068381e-01  -1.0620387263038997e-02 1.4074108053986010e-02 -6.1844435787614194e-01  -1.0643400077566201e-02 1.5303087046870403e-02 -6.7433376059764749e-01  -1.0649440988070261e-02 1.6533667912814593e-02 -7.3025929247630994e-01  0.0000000000000000e+00 0.0000000000000000e+00 0.0000000000000000e+00  -1.3283699912418269e-03 2.9756473063374177e-04 -3.6214905189816526e-03  -2.7085279817780279e-03 6.0850707265685513e-04 -1.4427686003340556e-02  -3.9775416165391247e-03 1.0496213535255293e-03 -3.2018390758008899e-02  -5.1303329804016033e-03 1.6117228845412836e-03 -5.5789163986091579e-02  -6.1663621204400294e-03 2.2871956859289817e-03 -8.5131812623705824e-02  -7.0871673904147336e-03 3.0658267147961851e-03 -1.1944719258877096e-01  -7.8950387548859750e-03 3.9359940946767430e-03 -1.5814706943669948e-01  -8.5930919377834539e-03 4.8857193373440652e-03 -2.0065761288518305e-01  -9.1853682719646498e-03 5.9032174651889174e-03 -2.4642380624220414e-01  -9.6769165087581110e-03 6.9771852907499522e-03 