<?xml version="1.0"?>
<VTKFile type="UnstructuredGrid"  version="0.1"  >
<UnstructuredGrid>
<Piece  NumberOfPoints="760" NumberOfCells="3024">
<Points>
<DataArray  type="Float64"  NumberOfComponents="3"  format="ascii">0 0 0  0.05555555555555555 0 0  0.1111111111111111 0 0  0.1666666666666667 0 0  0.2222222222222222 0 0  0.2777777777777778 0 0  0.3333333333333333 0 0  0.3888888888888889 0 0  0.4444444444444444 0 0  0.5 0 0  0.5555555555555556 0 0  0.6111111111111112 0 0  0.6666666666666666 0 0  0.7222222222222222 0 0  0.7777777777777778 0 0  0.8333333333333334 0 0  0.8888888888888888 0 0  0.9444444444444444 0 0  1 0 0  0 0.01428571428571429 0  0.05555555555555555 0.01428571428571429 0  0.1111111111111111 0.01428571428571429 0  0.1666666666666667 0.01428571428571429 0  0.2222222222222222 0.01428571428571429 0  0.2777777777777778 0.01428571428571429 0  0.3333333333333333 0.01428571428571429 0  0.3888888888888889 0.01428571428571429 0  0.4444444444444444 0.01428571428571429 0  0.5 0.01428571428571429 0  0.5555555555555556 0.01428571428571429 0  0.6111111111111112 0.01428571428571429 0  0.6666666666666666 0.01428571428571429 0  0.7222222222222222 0.01428571428571429 0  0.7777777777777778 0.01428571428571429 0  0.8333333333333334 0.01428571428571429 0  0.8888888888888888 0.01428571428571429 0  0.9444444444444444 0.01428571428571429 0  1 0.01428571428571429 0  0 0.02857142857142857 0  0.05555555555555555 0.02857142857142857 0  0.1111111111111111 0.02857142857142857 0  0.1666666666666667 0.02857142857142857 0  0.2222222222222222 0.02857142857142857 0  0.2777777777777778 0.02857142857142857 0  0.3333333333333333 0.02857142857142857 0  0.3888888888888889 0.02857142857142857 0  0.4444444444444444 0.02857142857142857 0  0.5 0.02857142857142857 0  0.5555555555555556 0.02857142857142857 0  0.6111111111111112 0.02857142857142857 0  0.6666666666666666 0.02857142857142857 0  0.7222222222222222 0.02857142857142857 0  0.7777777777777778 0.02857142857142857 0  0.8333333333333334 0.02857142857142857 0  0.8888888888888888 0.02857142857142857 0  0.9444444444444444 0.02857142857142857 0  1 0.02857142857142857 0  0 0.04285714285714286 0  0.05555555555555555 0.04285714285714286 0  0.1111111111111111 0.04285714285714286 0  0.1666666666666667 0.04285714285714286 0  0.2222222222222222 0.04285714285714286 0  0.2777777777777778 0.04285714285714286 0  0.3333333333333333 0.04285714285714286 0  0.3888888888888889 0.04285714285714286 0  0.4444444444444444 0.04285714285714286 0  0.5 0.04285714285714286 0  0.5555555555555556 0.04285714285714286 0  0.6111111111111112 0.04285714285714286 0  0.6666666666666666 0.04285714285714286 0  0.7222222222222222 0.04285714285714286 0  0.7777777777777778 0.04285714285714286 0  0.8333333333333334 0.04285714285714286 0  0.8888888888888888 0.04285714285714286 0  0.9444444444444444 0.04285714285714286 0  1 0.04285714285714286 0  0 0.05714285714285715 0  0.05555555555555555 0.05714285714285715 0  0.1111111111111111 0.05714285714285715 0  0.1666666666666667 0.05714285714285715 0  0.2222222222222222 0.05714285714285715 0  0.2777777777777778 0.05714285714285715 0  0.3333333333333333 0.05714285714285715 0  0.3888888888888889 0.05714285714285715 0  0.4444444444444444 0.05714285714285715 0  0.5 0.05714285714285715 0  0.5555555555555556 0.05714285714285715 0  0.6111111111111112 0.05714285714285715 0  0.6666666666666666 0.05714285714285715 0  0.7222222222222222 0.05714285714285715 0  0.7777777777777778 0.05714285714285715 0  0.8333333333333334 0.05714285714285715 0  0.8888888888888888 0.05714285714285715 0  0.9444444444444444 0.05714285714285715 0  1 0.05714285714285715 0  0 0.07142857142857142 0  0.05555555555555555 0.07142857142857142 0  0.1111111111111111 0.07142857142857142 0  0.1666666666666667 0.07142857142857142 0  0.2222222222222222 0.07142857142857142 0  0.2777777777777778 0.07142857142857142 0  0.3333333333333333 0.07142857142857142 0  0.3888888888888889 0.07142857142857142 0  0.4444444444444444 0.07142857142857142 0  0.5 0.07142857142857142 0  0.5555555555555556 0.07142857142857142 0  0.6111111111111112 0.07142857142857142 0  0.6666666666666666 0.07142857142857142 0  0.7222222222222222 0.07142857142857142 0  0.7777777777777778 0.07142857142857142 0  0.8333333333333334 0.07142857142857142 0  0.8888888888888888 0.07142857142857142 0  0.9444444444444444 0.07142857142857142 0  1 0.07142857142857142 0  0 0.08571428571428573 0  0.05555555555555555 0.08571428571428573 0  0.1111111111111111 0.08571428571428573 0  0.1666666666666667 0.08571428571428573 0  0.2222222222222222 0.08571428571428573 0  0.2777777777777778 0.08571428571428573 0  0.3333333333333333 0.08571428571428573 0  0.3888888888888889 0.08571428571428573 0  0.4444444444444444 0.08571428571428573 0  0.5 0.08571428571428573 0  0.5555555555555556 0.08571428571428573 0  0.6111111111111112 0.08571428571428573 0  0.6666666666666666 0.08571428571428573 0  0.7222222222222222 0.08571428571428573 0  0.7777777777777778 0.08571428571428573 0  0.8333333333333334 0.08571428571428573 0  0.8888888888888888 0.08571428571428573 0  0.9444444444444444 0.08571428571428573 0  1 0.08571428571428573 0  0 0.1 0  0.05555555555555555 0.1 0  0.1111111111111111 0.1 0  0.1666666666666667 0.1 0  0.2222222222222222 0.1 0  0.2777777777777778 0.1 0  0.3333333333333333 0.1 0  0.3888888888888889 0.1 0  0.4444444444444444 0.1 0  0.5 0.1 0  0.5555555555555556 0.1 0  0.6111111111111112 0.1 0  0.6666666666666666 0.1 0  0.7222222222222222 0.1 0  0.7777777777777778 0.1 0  0.8333333333333334 0.1 0  0.8888888888888888 0.1 0  0.9444444444444444 0.1 0  1 0.1 0  0 0 0.01  0.05555555555555555 0 0.01  0.1111111111111111 0 0.01  0.1666666666666667 0 0.01  0.2222222222222222 0 0.01  0.2777777777777778 0 0.01  0.3333333333333333 0 0.01  0.3888888888888889 0 0.01  0.4444444444444444 0 0.01  0.5 0 0.01  0.5555555555555556 0 0.01  0.6111111111111112 0 0.01  0.6666666666666666 0 0.01  0.7222222222222222 0 0.01  0.7777777777777778 0 0.01  0.8333333333333334 0 0.01  0.8888888888888888 0 0.01  0.9444444444444444 0 0.01  1 0 0.01  0 0.01428571428571429 0.01  0.05555555555555555 0.01428571428571429 0.01  0.1111111111111111 0.01428571428571429 0.01  0.1666666666666667 0.01428571428571429 0.01  0.2222222222222222 0.01428571428571429 0.01  0.2777777777777778 0.01428571428571429 0.01  0.3333333333333333 0.01428571428571429 0.01  0.3888888888888889 0.01428571428571429 0.01  0.4444444444444444 0.01428571428571429 0.01  0.5 0.01428571428571429 0.01  0.5555555555555556 0.01428571428571429 0.01  0.6111111111111112 0.01428571428571429 0.01  0.6666666666666666 0.01428571428571429 0.01  0.7222222222222222 0.01428571428571429 0.01  0.7777777777777778 0.01428571428571429 0.01  0.8333333333333334 0.01428571428571429 0.01  0.8888888888888888 0.01428571428571429 0.01  0.9444444444444444 0.01428571428571429 0.01  1 0.01428571428571429 0.01  0 0.02857142857142857 0.01  0.05555555555555555 0.02857142857142857 0.01  0.1111111111111111 0.02857142857142857 0.01  0.1666666666666667 0.02857142857142857 0.01  0.2222222222222222 0.02857142857142857 0.01  0.2777777777777778 0.02857142857142857 0.01  0.3333333333333333 0.02857142857142857 0.01  0.3888888888888889 0.02857142857142857 0.01  0.4444444444444444 0.02857142857142857 0.01  0.5 0.02857142857142857 0.01  0.5555555555555556 0.02857142857142857 0.01  0.6111111111111112 0.02857142857142857 0.01  0.6666666666666666 0.02857142857142857 0.01  0.7222222222222222 0.02857142857142857 0.01  0.7777777777777778 0.02857142857142857 0.01  0.8333333333333334 0.02857142857142857 0.01  0.8888888888888888 0.02857142857142857 0.01  0.9444444444444444 0.02857142857142857 0.01  1 0.02857142857142857 0.01  0 0.04285714285714286 0.01  0.05555555555555555 0.04285714285714286 0.01  0.1111111111111111 0.04285714285714286 0.01  0.1666666666666667 0.04285714285714286 0.01  0.2222222222222222 0.04285714285714286 0.01  0.2777777777777778 0.04285714285714286 0.01  0.3333333333333333 0.04285714285714286 0.01  0.3888888888888889 0.04285714285714286 0.01  0.4444444444444444 0.04285714285714286 0.01  0.5 0.04285714285714286 0.01  0.5555555555555556 0.04285714285714286 0.01  0.6111111111111112 0.04285714285714286 0.01  0.6666666666666666 0.04285714285714286 0.01  0.7222222222222222 0.04285714285714286 0.01  0.7777777777777778 0.04285714285714286 0.01  0.8333333333333334 0.04285714285714286 0.01  0.8888888888888888 0.04285714285714286 0.01  0.9444444444444444 0.04285714285714286 0.01  1 0.04285714285714286 0.01  0 0.05714285714285715 0.01  0.05555555555555555 0.05714285714285715 0.01  0.1111111111111111 0.05714285714285715 0.01  0.1666666666666667 0.05714285714285715 0.01  0.2222222222222222 0.05714285714285715 0.01  0.2777777777777778 0.05714285714285715 0.01  0.3333333333333333 0.05714285714285715 0.01  0.3888888888888889 0.05714285714285715 0.01  0.4444444444444444 0.05714285714285715 0.01  0.5 0.05714285714285715 0.01  0.5555555555555556 0.05714285714285715 0.01  0.6111111111111112 0.05714285714285715 0.01  0.6666666666666666 0.05714285714285715 0.01  0.7222222222222222 0.05714285714285715 0.01  0.7777777777777778 0.05714285714285715 0.01  0.8333333333333334 0.05714285714285715 0.01  0.8888888888888888 0.05714285714285715 0.01  0.9444444444444444 0.05714285714285715 0.01  1 0.05714285714285715 0.01  0 0.07142857142857142 0.01  0.05555555555555555 0.07142857142857142 0.01  0.1111111111111111 0.07142857142857142 0.01  0.1666666666666667 0.07142857142857142 0.01  0.2222222222222222 0.07142857142857142 0.01  0.2777777777777778 0.07142857142857142 0.01  0.3333333333333333 0.07142857142857142 0.01  0.3888888888888889 0.07142857142857142 0.01  0.4444444444444444 0.07142857142857142 0.01  0.5 0.07142857142857142 0.01  0.5555555555555556 0.07142857142857142 0.01  0.6111111111111112 0.07142857142857142 0.01  0.6666666666666666 0.07142857142857142 0.01  0.7222222222222222 0.07142857142857142 0.01  0.7777777777777778 0.07142857142857142 0.01  0.8333333333333334 0.07142857142857142 0.01  0.8888888888888888 0.07142857142857142 0.01  
[...]
<PointData  Vectors="f_33"> 
<DataArray  type="Float64"  Name="f_33"  NumberOfComponents="3" format="ascii">0.0000000000000000e+00 0.0000000000000000e+00 0.0000000000000000e+00  -3.0546094161959985e-03 -1.9666533096927052e-04 -4.3771422003739064e-03  -5.7007633732147284e-03 1.1220456635345376e-04 -1.6772975084297599e-02  -8.1149618437174071e-03 6.1082995274541513e-04 -3.6622441480467470e-02  -1.0300563254866260e-02 1.2474892303799305e-03 -6.3214476065321337e-02  -1.2261087278844278e-02 1.9957506650398493e-03 -9.5875603774222926e-02  -1.3999543956584020e-02 2.8382998973431176e-03 -1.3394676888523674e-01  -1.5520422940319295e-02 3.7610607728980261e-03 -1.7678238111177202e-01  -1.6830002474692934e-02 4.7513761295601550e-03 -2.2375346912700408e-01  -1.7936453031607090e-02 5.7974390625881705e-03 -2.7425229055874073e-01  -1.8849948733046473e-02 6.8881646386212119e-03 -3.2769771874752751e-01  -1.9582781693189038e-02 8.0132235427993453e-03 -3.8354115524015225e-01  -2.0149464400815713e-02 9.1631382524425455e-03 -4.4127283338352008e-01  -2.0566814460032379e-02 1.0329405041506257e-02 -5.0042842268136611e-01  -2.0854020836599658e-02 1.1504628282289776e-02 -5.6059586401327488e-01  -2.1032694011670953e-02 1.2682663202919640e-02 -6.2142237775709186e-01  -2.1126916896714476e-02 1.3858766448600773e-02 -6.8262159929051480e-01  -2.1163350494671752e-02 1.5029741600782406e-02 -7.4398087732608043e-01  -2.1171155538275952e-02 1.6194209848879919e-02 -8.0536951024119585e-01  0.0000000000000000e+00 0.0000000000000000e+00 0.0000000000000000e+00  -2.9121862489211239e-03 -4.5456708690155110e-05 -4.5057780124453392e-03  -5.6171795070620771e-03 2.4624233867510931e-04 -1.6863845163836013e-02  -8.0809925155971730e-03 7.3212364822792598e-04 -3.6622668897710063e-02  -1.0312882506207613e-02 1.3564455104530604e-03 -6.3114636193225188e-02  -1.2316134211893995e-02 2.0925773257378633e-03 -9.5678237183685066e-02  -1.4093769487280496e-02 2.9232400865486733e-03 -1.3365841732253772e-01  -1.5650290782325646e-02 3.8344467910002358e-03 -1.7641101482045662e-01  -1.6991975795483394e-02 4.8136411633278222e-03 -2.2330757199778037e-01  -1.8126995441268782e-02 5.8491238389845879e-03 -2.7374049065273326e-01  -1.9065537872165996e-02 6.9299238752706920e-03 -3.2712861160091183e-01  -1.9819930017976394e-02 8.0458317766661774e-03 -3.8292319490294052e-01  -2.0404744325630792e-02 9.1874946644501486e-03 -4.4061424521115966e-01  -2.0836886604359395e-02 1.0346537142055969e-02 -4.9973712090709477e-01  -2.1135664694988773e-02 1.1515694293840507e-02 -5.5987936762418100e-01  -2.1322839391933045e-02 1.2688952825108004e-02 -6.2068772070954492e-01  -2.1422668390016556e-02 1.3861699514053331e-02 -6.8187522720939520e-01  -2.1462019352085891e-02 1.5030851001422672e-02 -7.4322849638114230e-01  -2.1470823718158113e-02 1.6194777645516360e-02 -8.0461573049380786e-01  0.0000000000000000e+00 0.0000000000000000e+00 0.0000000000000000e+00  -2.8986515376865289e-03 6.9968602142311657e-05 -4.5562101222171511e-03  -5.6267425995426418e-03 3.7708137906590961e-04 -1.6865188319921107e-02  -8.1268665051786194e-03 8.5856168969690547e-04 -3.6536850872983605e-02  -1.0395144695958364e-02 1.4729006350755597e-03 -6.2936174181097509e-02  -1.2432410825478031e-02 2.1972496156724458e-03 -9.5410480566649511e-02  -1.4241074688023955e-02 3.0156973084467849e-03 -1.3330799005458885e-01  -1.5825479168452335e-02 3.9147868894997152e-03 -1.7598573853558622e-01  -1.7191883370266232e-02 4.8822166928728598e-03 -2.2281566180378892e-01  -1.8348499648799907e-02 5.9064531540398389e-03 -2.7319021422096407e-01  -1.9305596193297466e-02 6.9766640516787737e-03 -3.2652811856145475e-01  -2.0075612380140231e-02 8.0827724193581613e-03 -3.8228040743062836e-01  -2.0673264206347630e-02 9.2155585142065493e-03 -4.3993676867273185e-01  -2.1115632570065799e-02 1.0366782373691524e-02 -4.9903215927518307e-01  -2.1422232808811309e-02 1.1529316319953851e-02 -5.5915363802674389e-01  -2.1615065263226728e-02 1.2697283991434150e-02 -6.1994736447682719e-01  -2.1718651475300037e-02 1.3866206180504128e-02 -6.8112571345841122e-01  -2.1760127043910248e-02 1.5033130554864643e-02 -7.4247450248481695e-01  -2.1769753648569850e-02 1.6196382130489410e-02 -8.0386089048017295e-01  0.0000000000000000e+00 0.0000000000000000e+00 0.0000000000000000e+00  -2.9065152181744600e-03 1.6938532895188454e-04 -4.5413637464283649e-03  -5.6576996029593886e-03 5.0324525515422710e-04 -1.6774136567597894e-02  -8.1925880301577415e-03 9.8691427058230285e-04 -3.6357860190063679e-02  -1.0495596143395427e-02 1.5935435376703041e-03 -6.2670502358534122e-02  -1.2565014012249286e-02 2.3066846790388501e-03 -9.5063768967920875e-02  -1.4402781392469031e-02 3.1128363638585383e-03 -1.3288752177440619e-01  -1.6013159526112597e-02 3.9994848492656302e-03 -1.7549938922556785e-01  -1.7402427295264530e-02 4.9547406810301290e-03 -2.2227143639141611e-01  -1.8578863780567528e-02 5.9672971903389155e-03 -2.7259601957236862e-01  -1.9552838653667255e-02 7.0264862312930708e-03 -3.2589163050408143e-01  -2.0336924413248320e-02 8.1223754565401714e-03 -3.8160897242899450e-01  -2.0946001465265599e-02 9.2458855001499880e-03 -4.3923731640214536e-01  -2.1397347064121223e-02 1.0388917384947759e-02 -4.9831111716643822e-01  -2.1710705767606444e-02 1.1544485664529903e-02 -5.5841684472975062e-01  -2.1908340376599104e-02 1.2706855440982103e-02 -6.1919998146910771e-01  -2.2015062094952759e-02 1.3871685243987131e-02 -6.8037213409162600e-01  -2.2058289726424856e-02 1.5036164009370178e-02 -7.4171824745608927e-01  -2.2068566994744531e-02 1.6198767626678618e-02 -8.0310437826259695e-01  0.0000000000000000e+00 0.0000000000000000e+00 0.0000000000000000e+00  -2.9092033391891975e-03 2.6614892398439585e-04 -4.4664473934431601e-03  -5.6903517016825269e-03 6.2850615605438342e-04 -1.6595111926477481e-02  -8.2627543208673923e-03 1.1169089714199883e-03 -3.6086148384030528e-02  -1.0601265986580177e-02 1.7170376581180486e-03 -6.2316572913436064e-02  -1.2702826533183701e-02 2.4192998697411660e-03 -9.4636533814342186e-02  -1.4569399918129744e-02 3.2130874199620086e-03 -1.3239533538277390e-01  -1.6205347267093707e-02 4.0870655635385465e-03 -1.7495034865270526e-01  -1.7617033262436171e-02 5.0298583290120441e-03 -2.2167340034745334e-01  -1.8812829970241200e-02 6.0304280798372089e-03 -2.7195655635519200e-01  -1.9803220527805740e-02 7.0782888707468239e-03 -3.2521794740735216e-01  -2.0600917291601586e-02 8.1636617636782986e-03 -3.8090783814574264e-01  -2.1220969989523896e-02 9.2776130612879544e-03 -4.3851497916775523e-01  -2.1680856630555280e-02 1.0412188858759696e-02 -4.9757321973722840e-01  -2.2000555437117746e-02 1.1560549808800299e-02 -5.5766833708138308e-01  -2.2202597354722773e-02 1.2717106643573119e-02 -6.1844503256537842e-01  -2.2312094782124869e-02 1.3877659566982954e-02 -6.7961404478534648e-01  -2.2356768577933395e-02 1.5039547408345556e-02 -7.4095935531329549e-01  -2.2367488578152510e-02 1.6201550209316469e-02 -8.0234589093233111e-01  0.0000000000000000e+00 0.0000000000000000e+00 0.0000000000000000e+00  -2.8969418123020287e-03 3.7159087143332620e-04 -4.3287579645673148e-03  -5.7151691904284638e-03 7.5897782704966148e-04 -1.6327585913115086e-02  -8.3290239965376385e-03 1.2507702332457229e-03 -3.5721442222912625e-02  -1.0704723964866663e-02 1.8439272803956967e-03 -6.1873815892585796e-02  -1.2839269722304402e-02 2.5350223254137294e-03 -9.4128033511474460e-02  -1.4735187103929476e-02 3.3161539412487279e-03 -1.3183065444119194e-01  -1.6397110544329935e-02 4.1771507153578313e-03 -1.7433787595146058e-01  -1.7831548361294081e-02 5.1071613086066123e-03 -2.2102087882028243e-01  -1.9046984511071671e-02 6.0954265496889976e-03 -2.7127122741313725e-01  -2.0054019797676213e-02 7.1316488223490656e-03 -3.2450655332366829e-01  -2.0865504827581711e-02 8.2062069907386237e-03 -3.8017656968806979e-01  -2.1496654785589278e-02 9.3103167520190520e-03 -4.3776940108129442e-01  -2.1965143756916990e-02 1.0436172866536810e-02 -4.9681818677681150e-01  -2.2291178744407173e-02 1.1577085946421834e-02 -5.5690790596563677e-01  -2.2497554552836380e-02 1.2727617244440577e-02 -6.1768237308097840e-01  -2.2609687926898207e-02 1.3883714446647351e-02 -6.7885135406308827e-01  -2.2655624882597543e-02 1.5042875036292477e-02 -7.4019777145544818e-01  -2.2666615813653337e-02 1.6204296787630437e-02 -8.0158541268192696e-01  0.0000000000000000e+00 0.0000000000000000e+00 0.0000000000000000e+00  -2.8559643085234883e-03 4.9550638245654467e-04 -4.1153262867297882e-03  -5.7162559657309084e-03 9.0044831756598814e-04 -1.5964464240821756e-02  -8.3753717399842678e-03 1.3912845265515391e-03 -3.5260203099372070e-02  -1.0790706713826608e-02 1.9754295324718044e-03 -6.1339920534938294e-02  -1.2960353293309657e-02 2.6543732431795076e-03 -9.3536493046459876e-02  -1.4887614692630542e-02 3.4222491256047692e-03 -1.3119203499945431e-01  -1.6577431194381816e-02 4.2698023093556857e-03 -1.7366079060062156e-01  -1.8036452146781481e-02 5.1866221363691123e-03 -2.2031292641161659e-01  -1.9273261217013130e-02 6.1622003393026073e-03 -2.7053930529529946e-01  -2.0298560257224475e-02 7.1864198391148257e-03 -3.2375692375185688e-01  -2.1125319033287914e-02 8.2498167617738299e-03 -3.7941482961981293e-01  -2.1768897683340092e-02 9.3437584556906976e-03 -4.3700041386598465e-01  -2.2247145028291004e-02 1.0460591793171863e-02 -4.9604599875329991e-01  -2.2580474995996289e-02 1.1593781551423418e-02 -5.5613565732178571e-01  -2.2791923767629722e-02 1.2738045157043635e-02 -6.1691220730692276e-01  -2.2907194694588264e-02 1.3889485927251454e-02 -6.7808433024320758e-01  -2.2954675052016805e-02 1.5045760998225183e-02 -7.3943378563230178e-01  -2.2965970732896985e-02 1.6206574370407137e-02 -8.0082321812909762e-01  0.0000000000000000e+00 0.0000000000000000e+00 0.0000000000000000e+00  -2.7273941621236398e-03 6.3008429511694894e-04 -3.8199833206377098e-03  -5.6277070063524299e-03 1.0453860227382882e-03 -1.5506390958039228e-02  -8.3370975176561522e-03 1.5310864553864905e-03 -3.4706871618553820e-02  -1.0798495036455477e-02 2.1044780108264564e-03 -6.0720452544115996e-02  -1.3010706292122073e-02 2.7708072316889984e-03 -9.2867636238254656e-02  -1.4977151374656173e-02 3.5254830857299204e-03 -1.3048497816761381e-01  -1.6702722927279947e-02 4.3598386862341350e-03 -1.7292422429274495e-01  -1.8194030298488626e-02 5.2637722021367968e-03 -2.1955424867834408e-01  -1.9459643589111571e-02 6.2269733916598541e-03 -2.6976504812547508e-01  -2.0510275300188979e-02 7.2394830961484179e-03 -3.2297286306616119e-01  -2.1358930063978796e-02 8.2919835475502891e-03 -3.7862596976160007e-01  -2.2021028912362618e-02 9.3759868839495206e-03 -4.3621092291490365e-01  -2.2514509779407808e-02 1.0483986827980938e-02 -4.9525912490093665e-01  -2.2859906009955910e-02 1.1609597790917638e-02 -5.5535363843473906e-01  -2.3080405893987924e-02 1.2747689908348641e-02 -6.1613617857411629e-01  -2.3201901753800838e-02 1.3894526029408246e-02 -6.7731423196539842e-01  -2.3253082136199459e-02 1.5047897496451456e-02 -7.3866823491274602e-01  -2.3265603832197116e-02 1.6208105085702463e-02 -8.0005968815429929e-01  0.0000000000000000e+00 0.0000000000000000e+00 0.0000000000000000e+00  -1.4154914648698230e-03 -8.1790496247985346e-05 -4.2478169868784901e-03  -2.6858569173288968e-03 1.9851810590699366e-04 -1.6653432513966032e-02  -3.8391290563357674e-03 6.2976039182014310e-04 -3.6512661089362700e-02  -4.8840969288202456e-03 1.1936968187906661e-03 -6.3114853490801523e-02  -5.8225913477312373e-03 1.8715646054256016e-03 -9.5786219872373846e-02  -6.6557452840424703e-03 2.6485269404177727e-03 -1.3386755333111169e-01  -7.3855035413369959e-03 3.5114045520073908e-03 -1.7671314651529821e-01  -8.0147366264974665e-03 4.4478725515314571e-03 -2.2369393013702263e-01  -8.5472430488361985e-03 5.4462258625319988e-03 -2.7420206897240773e-01  -8.9877807355659561e-03 6.4953686293586325e-03 -3.2765634173832359e-01  -9.3421136513401060e-03 7.5848888796701940e-03 -3.8350805138486338e-01  -9.6170581318998777e-03 8.7051674378542474e-03 -4.4124732848191256e-01  -9.8205227119847471e-03 9.8475022221366712e-03 -5.0040973606630601e-01  -9.9615397652730378e-03 1.1004240798890126e-02 -5.6058310550367219e-01  -1.0050290004596297e-02 1.2168918714319174e-02 -6.2141454510300542e-01  -1.0098127696120380e-02 1.3336399597208982e-02 -6.8261757446295124e-01  -1.0117626761809419e-02 1.4502986067062273e-02 -7.4397941433025727e-01  -1.0122381603656510e-02 1.5666602490860597e-02 -8.0536886576215916e-01  0.0000000000000000e+00 0.0000000000000000e+00 0.0000000000000000e+00  -1.3841491763292519e-03 1.3167554987835722e-05 -4.3636440302830034e-03  -2.7150586808017984e-03 2.7557349774389540e-04 -1.6743409140889697e-02  -3.9081598712953861e-03 6.9976261528775666e-04 -3.6513100272987979e-02  -4.9894480910250456e-03 1.2567889398670869e-03 -6.3015517535261967e-02  -5.9606299391462931e-03 1.9277969959300826e-03 -9.5589378126070393e-02  -6.8230325405248624e-03 2.6979945165212234e-03 -1.3357966294654175e-01  -7.5787297662230331e-03 3.5542714484076295e-03 -1.7634215174357246e-01  -8.2306870115372247e-03 4.4843679774934798e-03 -2.2324831052346969e-01  -8.7827958564221237e-03 5.4766427960368834e-03 -2.7369045715445234e-01  -9.2399235947632739e-03 6.5200654707075019e-03 -3.2708734206857742e-01  -9.6079683134017557e-03 7.6042920683469630e-03 -3.8289012922309662e-01  -9.8939094340322765e-03 8.7197740134552608e-03 -4.4058872233438101e-01  -1.0105850039047983e-02 9.8578819507694881e-03 -4.9971837491862442e-01  -1.0253050228304772e-02 1.1011037723351800e-02 -5.5986652464211339e-01  -1.0345951955738762e-02 1.2172852233578725e-02 -6.2067979654490224e-01  -1.0396199871618396e-02 1.3338265910527978e-02 -6.8187112482137857e-01  -1.0416696964115613e-02 1.4503657856779510e-02 -7.4322699142144377e-01  -1.0421792337588462e-02 1.5666844591043408e-02 -8.0461522879743530e-01  0.0000000000000000e+00 0.0000000000000000e+00 0.0000000000000000e+00  -1.3924439235367759e-03 7.6717699293631509e-05 -4.4098966684632977e-03  -2.7551378254707460e-03 3.4427179885070038e-04 -1.6739598238156708e-02  -3.9852606905330049e-03 7.6558062071282475e-04 -3.6424847581377789e-02  -5.1009574913253039e-03 1.3171736879104188e-03 -6.2835623484717287e-02  -6.1035021428313286e-03 1.9820008687856049e-03 -9.5320619189326355e-02  -6.9940794898522684e-03 2.7458493806506944e-03 -1.3322845833554656e-01  -7.7747737049417764e-03 3.5958453145292471e-03 -1.7591624935971895e-01  -8.4486088433697558e-03 4.5198475822585083e-03 -2.2275589655157077e-01  -9.0195632381410134e-03 5.5062960289023978e-03 -2.7313978563091951e-01  -9.4926185968788619e-03 6.5442302575976531e-03 -3.2648655385380682e-01  -9.8738166114159115e-03 7.6233742054549703e-03 -3.8224713877688005e-01  -1.0170310986135266e-02 8.7342478719880812e-03 -4.3991112692624340e-01  -1.0390411124392599e-02 9.8682918379211452e-03 -4.9901336947295144e-01  -1.0543616606066914e-02 1.1017998939468815e-02 -5.5914081602495680e-01  -1.0640641864410131e-02 1.2177051241899129e-02 -6.1993951450334139e-01  -1.0693431281683827e-02 1.3340460935967994e-02 -6.8112172604657018e-01  -1.0715206774208235e-02 1.4504687324478623e-02 -7.4247314136634779e-01  -1.0720790012038158e-02 1.5667539803057129e-02 -8.0386058718276354e-01  0.0000000000000000e+00 0.0000000000000000e+00 0.0000000000000000e+00  -1.4125256664572136e-03 1.2970072100298343e-04 -4.3919997510847714e-03  -2.8049831743989354e-03 4.0826587872980972e-04 -1.6644768191970478e-02  -4.0706074238007319e-03 8.3009726110460519e-04 -3.6243249214614096e-02  -5.2198318335661756e-03 1.3777249952523281e-03 -6.2568141026219215e-02  -6.2528853619366687e-03 2.0368694608284763e-03 -9.4972523698469466e-02  -7.1707876786470913e-03 2.7945163857143965e-03 -1.3280686302584865e-01  -7.9756511173260762e-03 3.6382524435758603e-03 -1.7542895941213274e-01  -8.6705697235614568e-03 4.5561354899470788e-03 -2.2221088694257979e-01  -9.2596179910623324e-03 5.5367154308770244e-03 -2.7254494803192919e-01  -9.7479010909199675e-03 6.5691127121054434e-03 -3.2584955355453737e-01  -1.0141613486514415e-02 7.6431233457370153e-03 -3.8157531251000765e-01  -1.0448092535380541e-02 8.7493376653952331e-03 -4.3921139395732345e-01  -1.0675863496407569e-02 9.8792670361477312e-03 -4.9829214555638285e-01  -1.0834675089007116e-02 1.1025475716149235e-02 -5.5840392661399973e-01  -1.0935524553499790e-02 1.2181716694563067e-02 -6.1919210626434029e-01  -1.0990668176488784e-02 1.3343072312256125e-02 -6.8036817665373284e-01  -1.1013647873354930e-02 1.4506085986215870e-02 -7.4171695892052880e-01  -1.1019661859939836e-02 1.5668676678121326e-02 -8.0310420097958135e-01  0.0000000000000000e+00 0.0000000000000000e+00 0.0000000000000000e+00  -1.4310936828745653e-03 1.8159436976172564e-04 -4.3161838649819987e-03  -2.8565868504730951e-03 4.7183331980859091e-04 -1.6463481448862571e-02  -4.1584370359661910e-03 8.9559247369505059e-04 -3.5969339734319934e-02  -5.3413976309640999e-03 1.4398885573128884e-03 -6.2212442001498440e-02  -6.4048581439503710e-03 2.0935172038284294e-03 -9.4543841573040813e-02  -7.3498837813462418e-03 2.8449118268005272e-03 -1.3231345665777272e-01  -8.1786816023459441e-03 3.6822518444431271e-03 -1.7487887842268401e-01  -8.8944386762506676e-03 4.5938492242472229e-03 -2.2161196738981231e-01  -9.5013353011979187e-03 5.5683864628861025e-03 -2.7190474529873188e-01  -1.0004605181081450e-02 6.5950745172455218e-03 -3.2517526499840238e-01  -1.0410598900816566e-02 7.6637862496428252e-03 -3.8087369709697083e-01  -1.0726840215730204e-02 8.7651852876604337e-03 -4.3848868929094104e-01  -1.0962072811693771e-02 9.8908561071072744e-03 -4.9755398240721760e-01  -1.1126297155317743e-02 1.1033436545861889e-02 -5.5765524143967515e-01  -1.1230796856887038e-02 1.2186752532098066e-02 -6.1843705287008566e-01  -1.1288148386457305e-02 1.3345957278489530e-02 -6.7961003965844291e-01  -1.1312223530752882e-02 1.4507681751149921e-02 -7.4095806385502505e-01  -1.1318569061572872e-02 1.5670053445299176e-02 -8.0234575512294026e-01  0.0000000000000000e+00 0.0000000000000000e+00 0.0000000000000000e+00  -1.4426685613847369e-03 2.3955822494552126e-04 -4.1807849786638660e-03  -2.9044267858890443e-03 5.3916435216389610e-04 -1.6195741018219724e-02  -4.2441476142310707e-03 9.6419266189457192e-04 -3.5603638412565891e-02  -5.4615433350350242e-03 1.5048595974770905e-03 -6.1768653971792625e-02  -6.5557791641903890e-03 2.1527431605978249e-03 -9.4034403680503836e-02  -7.5281974942898022e-03 2.8976400466458252e-03 -1.3174794024698780e-01  -8.3811574128131814e-03 3.7283232903404886e-03 -1.7426566586732053e-01  -9.1179531920092607e-03 4.6333700295406325e-03 -2.2095879588484699e-01  -9.7428744371934484e-03 5.6016029258373441e-03 -2.7121885177629945e-01  -1.0261283134920586e-02 6.6223282484322351e-03 -3.2446338754362875e-01  -1.0679684139878827e-02 7.6854992366028226e-03 -3.8014202194947649e-01  -1.1005785076937346e-02 8.7818558793482469e-03 -4.3774277601340317e-01  -1.1248545271544234e-02 9.9030587388696089e-03 -4.9679867977695363e-01  -1.1418214093092245e-02 1.1041822356402631e-02 -5.5689459936584595e-01  -1.1526359258633696e-02 1.2192049190099800e-02 -6.1767423339187122e-01  -1.1585881257865563e-02 1.3348966142438443e-02 -6.7884723095361299e-01  -1.1610999124456579e-02 1.4509292866486756e-02 -7.4019639933348280e-01  -1.1617592577359602e-02 1.5671439518491835e-02 -8.0158522698214252e-01  0.0000000000000000e+00 0.0000000000000000e+00 0.0000000000000000e+00  -1.4430522547146996e-03 3.1221526355141660e-04 -3.9742255134976113e-03  -2.9425262496348388e-03 6.1592733390804580e-04 -1.5835374355587174e-02  -4.3214226337137474e-03 1.0396420208849653e-03 -3.5143597136859051e-02  -5.5740911803666702e-03 1.5753121957767346e-03 -6.1235384051949310e-02  -6.6999141317692660e-03 2.2166289790499847e-03 -9.3443222386813060e-02  -7.7005595691972588e-03 2.9544075631075255e-03 -1.3110952822729408e-01  -8.5785121861433940e-03 3.7778879997245988e-03 -1.7358868151667303e-01  -9.3371527012219811e-03 4.6758732403134823e-03 -2.2025085923517612e-01  -9.9808669143588661e-03 5.6373157799662378e-03 -2.7048687344847933e-01  -1.0515134891550244e-02 6.6516166387184193e-03 