<?xml version="1.0"?>
<VTKFile type="UnstructuredGrid"  version="0.1"  >
<UnstructuredGrid>
<Piece  NumberOfPoints="760" NumberOfCells="3024">
<Points>
<DataArray  type="Float64"  NumberOfComponents="3"  format="ascii">0 0 0  0.05555555555555555 0 0  0.1111111111111111 0 0  0.1666666666666667 0 0  0.2222222222222222 0 0  0.2777777777777778 0 0  0.3333333333333333 0 0  0.3888888888888889 0 0  0.4444444444444444 0 0  0.5 0 0  0.5555555555555556 0 0  0.6111111111111112 0 0  0.6666666666666666 0 0  0.7222222222222222 0 0  0.7777777777777778 0 0  0.8333333333333334 0 0  0.8888888888888888 0 0  0.9444444444444444 0 0  1 0 0  0 0.01428571428571429 0  0.05555555555555555 0.01428571428571429 0  0.1111111111111111 0.01428571428571429 0  0.1666666666666667 0.01428571428571429 0  0.2222222222222222 0.01428571428571429 0  0.2777777777777778 0.01428571428571429 0  0.3333333333333333 0.01428571428571429 0  0.3888888888888889 0.01428571428571429 0  0.4444444444444444 0.01428571428571429 0  0.5 0.01428571428571429 0  0.5555555555555556 0.01428571428571429 0  0.6111111111111112 0.01428571428571429 0  0.6666666666666666 0.01428571428571429 0  0.7222222222222222 0.01428571428571429 0  0.7777777777777778 0.01428571428571429 0  0.8333333333333334 0.01428571428571429 0  0.8888888888888888 0.01428571428571429 0  0.9444444444444444 0.01428571428571429 0  1 0.01428571428571429 0  0 0.02857142857142857 0  0.05555555555555555 0.02857142857142857 0  0.1111111111111111 0.02857142857142857 0  0.1666666666666667 0.02857142857142857 0  0.2222222222222222 0.02857142857142857 0  0.2777777777777778 0.02857142857142857 0  0.3333333333333333 0.02857142857142857 0  0.3888888888888889 0.02857142857142857 0  0.4444444444444444 0.02857142857142857 0  0.5 0.02857142857142857 0  0.5555555555555556 0.02857142857142857 0  0.6111111111111112 0.02857142857142857 0  0.6666666666666666 0.02857142857142857 0  0.7222222222222222 0.02857142857142857 0  0.7777777777777778 0.02857142857142857 0  0.8333333333333334 0.02857142857142857 0  0.8888888888888888 0.02857142857142857 0  0.9444444444444444 0.02857142857142857 0  1 0.02857142857142857 0  0 0.04285714285714286 0  0.05555555555555555 0.04285714285714286 0  0.1111111111111111 0.04285714285714286 0  0.1666666666666667 0.04285714285714286 0  0.2222222222222222 0.04285714285714286 0  0.2777777777777778 0.04285714285714286 0  0.3333333333333333 0.04285714285714286 0  0.3888888888888889 0.04285714285714286 0  0.4444444444444444 0.04285714285714286 0  0.5 0.04285714285714286 0  0.5555555555555556 0.04285714285714286 0  0.6111111111111112 0.04285714285714286 0  0.6666666666666666 0.04285714285714286 0  0.7222222222222222 0.04285714285714286 0  0.7777777777777778 0.04285714285714286 0  0.8333333333333334 0.04285714285714286 0  0.8888888888888888 0.04285714285714286 0  0.9444444444444444 0.04285714285714286 0  1 0.04285714285714286 0  0 0.05714285714285715 0  0.05555555555555555 0.05714285714285715 0  0.1111111111111111 0.05714285714285715 0  0.1666666666666667 0.05714285714285715 0  0.2222222222222222 0.05714285714285715 0  0.2777777777777778 0.05714285714285715 0  0.3333333333333333 0.05714285714285715 0  0.3888888888888889 0.05714285714285715 0  0.4444444444444444 0.05714285714285715 0  0.5 0.05714285714285715 0  0.5555555555555556 0.05714285714285715 0  0.6111111111111112 0.05714285714285715 0  0.6666666666666666 0.05714285714285715 0  0.7222222222222222 0.05714285714285715 0  0.7777777777777778 0.05714285714285715 0  0.8333333333333334 0.05714285714285715 0  0.8888888888888888 0.05714285714285715 0  0.9444444444444444 0.05714285714285715 0  1 0.05714285714285715 0  0 0.07142857142857142 0  0.05555555555555555 0.07142857142857142 0  0.1111111111111111 0.07142857142857142 0  0.1666666666666667 0.07142857142857142 0  0.2222222222222222 0.07142857142857142 0  0.2777777777777778 0.07142857142857142 0  0.3333333333333333 0.07142857142857142 0  0.3888888888888889 0.07142857142857142 0  0.4444444444444444 0.07142857142857142 0  0.5 0.07142857142857142 0  0.5555555555555556 0.07142857142857142 0  0.6111111111111112 0.07142857142857142 0  0.6666666666666666 0.07142857142857142 0  0.7222222222222222 0.07142857142857142 0  0.7777777777777778 0.07142857142857142 0  0.8333333333333334 0.07142857142857142 0  0.8888888888888888 0.07142857142857142 0  0.9444444444444444 0.07142857142857142 0  1 0.07142857142857142 0  0 0.08571428571428573 0  0.05555555555555555 0.08571428571428573 0  0.1111111111111111 0.08571428571428573 0  0.1666666666666667 0.08571428571428573 0  0.2222222222222222 0.08571428571428573 0  0.2777777777777778 0.08571428571428573 0  0.3333333333333333 0.08571428571428573 0  0.3888888888888889 0.08571428571428573 0  0.4444444444444444 0.08571428571428573 0  0.5 0.08571428571428573 0  0.5555555555555556 0.08571428571428573 0  0.6111111111111112 0.08571428571428573 0  0.6666666666666666 0.08571428571428573 0  0.7222222222222222 0.08571428571428573 0  0.7777777777777778 0.08571428571428573 0  0.8333333333333334 0.08571428571428573 0  0.8888888888888888 0.08571428571428573 0  0.9444444444444444 0.08571428571428573 0  1 0.08571428571428573 0  0 0.1 0  0.05555555555555555 0.1 0  0.1111111111111111 0.1 0  0.1666666666666667 0.1 0  0.2222222222222222 0.1 0  0.2777777777777778 0.1 0  0.3333333333333333 0.1 0  0.3888888888888889 0.1 0  0.4444444444444444 0.1 0  0.5 0.1 0  0.5555555555555556 0.1 0  0.6111111111111112 0.1 0  0.6666666666666666 0.1 0  0.7222222222222222 0.1 0  0.7777777777777778 0.1 0  0.8333333333333334 0.1 0  0.8888888888888888 0.1 0  0.9444444444444444 0.1 0  1 0.1 0  0 0 0.01  0.05555555555555555 0 0.01  0.1111111111111111 0 0.01  0.1666666666666667 0 0.01  0.2222222222222222 0 0.01  0.2777777777777778 0 0.01  0.3333333333333333 0 0.01  0.3888888888888889 0 0.01  0.4444444444444444 0 0.01  0.5 0 0.01  0.5555555555555556 0 0.01  0.6111111111111112 0 0.01  0.6666666666666666 0 0.01  0.7222222222222222 0 0.01  0.7777777777777778 0 0.01  0.8333333333333334 0 0.01  0.8888888888888888 0 0.01  0.9444444444444444 0 0.01  1 0 0.01  0 0.01428571428571429 0.01  0.05555555555555555 0.01428571428571429 0.01  0.1111111111111111 0.01428571428571429 0.01  0.1666666666666667 0.01428571428571429 0.01  0.2222222222222222 0.01428571428571429 0.01  0.2777777777777778 0.01428571428571429 0.01  0.3333333333333333 0.01428571428571429 0.01  0.3888888888888889 0.01428571428571429 0.01  0.4444444444444444 0.01428571428571429 0.01  0.5 0.01428571428571429 0.01  0.5555555555555556 0.01428571428571429 0.01  0.6111111111111112 0.01428571428571429 0.01  0.6666666666666666 0.01428571428571429 0.01  0.7222222222222222 0.01428571428571429 0.01  0.7777777777777778 0.01428571428571429 0.01  0.8333333333333334 0.01428571428571429 0.01  0.8888888888888888 0.01428571428571429 0.01  0.9444444444444444 0.01428571428571429 0.01  1 0.01428571428571429 0.01  0 0.02857142857142857 0.01  0.05555555555555555 0.02857142857142857 0.01  0.1111111111111111 0.02857142857142857 0.01  0.1666666666666667 0.02857142857142857 0.01  0.2222222222222222 0.02857142857142857 0.01  0.2777777777777778 0.02857142857142857 0.01  0.3333333333333333 0.02857142857142857 0.01  0.3888888888888889 0.02857142857142857 0.01  0.4444444444444444 0.02857142857142857 0.01  0.5 0.02857142857142857 0.01  0.5555555555555556 0.02857142857142857 0.01  0.6111111111111112 0.02857142857142857 0.01  0.6666666666666666 0.02857142857142857 0.01  0.7222222222222222 0.02857142857142857 0.01  0.7777777777777778 0.02857142857142857 0.01  0.8333333333333334 0.02857142857142857 0.01  0.8888888888888888 0.02857142857142857 0.01  0.9444444444444444 0.02857142857142857 0.01  1 0.02857142857142857 0.01  0 0.04285714285714286 0.01  0.05555555555555555 0.04285714285714286 0.01  0.1111111111111111 0.04285714285714286 0.01  0.1666666666666667 0.04285714285714286 0.01  0.2222222222222222 0.04285714285714286 0.01  0.2777777777777778 0.04285714285714286 0.01  0.3333333333333333 0.04285714285714286 0.01  0.3888888888888889 0.04285714285714286 0.01  0.4444444444444444 0.04285714285714286 0.01  0.5 0.04285714285714286 0.01  0.5555555555555556 0.04285714285714286 0.01  0.6111111111111112 0.04285714285714286 0.01  0.6666666666666666 0.04285714285714286 0.01  0.7222222222222222 0.04285714285714286 0.01  0.7777777777777778 0.04285714285714286 0.01  0.8333333333333334 0.04285714285714286 0.01  0.8888888888888888 0.04285714285714286 0.01  0.9444444444444444 0.04285714285714286 0.01  1 0.04285714285714286 0.01  0 0.05714285714285715 0.01  0.05555555555555555 0.05714285714285715 0.01  0.1111111111111111 0.05714285714285715 0.01  0.1666666666666667 0.05714285714285715 0.01  0.2222222222222222 0.05714285714285715 0.01  0.2777777777777778 0.05714285714285715 0.01  0.3333333333333333 0.05714285714285715 0.01  0.3888888888888889 0.05714285714285715 0.01  0.4444444444444444 0.05714285714285715 0.01  0.5 0.05714285714285715 0.01  0.5555555555555556 0.05714285714285715 0.01  0.6111111111111112 0.05714285714285715 0.01  0.6666666666666666 0.05714285714285715 0.01  0.7222222222222222 0.05714285714285715 0.01  0.7777777777777778 0.05714285714285715 0.01  0.8333333333333334 0.05714285714285715 0.01  0.8888888888888888 0.05714285714285715 0.01  0.9444444444444444 0.05714285714285715 0.01  1 0.05714285714285715 0.01  0 0.07142857142857142 0.01  0.05555555555555555 0.07142857142857142 0.01  0.1111111111111111 0.07142857142857142 0.01  0.1666666666666667 0.07142857142857142 0.01  0.2222222222222222 0.07142857142857142 0.01  0.2777777777777778 0.07142857142857142 0.01  0.3333333333333333 0.07142857142857142 0.01  0.3888888888888889 0.07142857142857142 0.01  0.4444444444444444 0.07142857142857142 0.01  0.5 0.07142857142857142 0.01  0.5555555555555556 0.07142857142857142 0.01  0.6111111111111112 0.07142857142857142 0.01  0.6666666666666666 0.07142857142857142 0.01  0.7222222222222222 0.07142857142857142 0.01  0.7777777777777778 0.07142857142857142 0.01  0.8333333333333334 0.07142857142857142 0.01  0.8888888888888888 0.07142857142857142 0.01  
[...]
<PointData  Vectors="f_33"> 
<DataArray  type="Float64"  Name="f_33"  NumberOfComponents="3" format="ascii">0.0000000000000000e+00 0.0000000000000000e+00 0.0000000000000000e+00  7.4235004210049845e-04 1.3028797432448771e-05 1.1353484553075755e-03  1.3826727317047692e-03 -1.5917975707413216e-04 4.3686626471140357e-03  1.9672724048123902e-03 -4.3640941850169452e-04 9.5525577299716766e-03  2.4977691440096418e-03 -8.0078557565399185e-04 1.6505048161220191e-02  2.9750813028695737e-03 -1.2405105804249572e-03 2.5053890905252684e-02  3.3997641537853300e-03 -1.7461756259248410e-03 3.5030164181910947e-02  3.7726563956818164e-03 -2.3092843328215902e-03 4.6267818646813209e-02  4.0949895660884915e-03 -2.9218051522949149e-03 5.8604353590776030e-02  4.3684298332829306e-03 -3.5760578878191881e-03 7.1881920218429124e-02  4.5951236024781563e-03 -4.2647216948543849e-03 8.5948682282191199e-02  4.7777464702069032e-03 -4.9808903293657256e-03 1.0066037640578808e-01  4.9195502131524705e-03 -5.7181480006702461e-03 1.1588204109405070e-01  5.0244048164626723e-03 -6.4706556719752190e-03 1.3148989062449307e-01  5.0968339879538136e-03 -7.2332436581955583e-03 1.4737331123347672e-01  5.1420437444925976e-03 -8.0015088809253215e-03 1.6343695664409691e-01  5.1659482898649394e-03 -8.7719158224990219e-03 1.7960292083283755e-01  5.1752076003362367e-03 -9.5418979183539473e-03 1.9581298791234253e-01  5.1771863119521146e-03 -1.0310021984212528e-02 2.1203116930956445e-01  0.0000000000000000e+00 0.0000000000000000e+00 0.0000000000000000e+00  7.2236523194032143e-04 -2.2805560231481997e-05 1.1697906156259228e-03  1.3919970752313095e-03 -1.9082744696999465e-04 4.3935755721633924e-03  2.0030084112217317e-03 -4.6506237810930003e-04 9.5538233207138560e-03  2.5579135865761303e-03 -8.2658061679123055e-04 1.6480135124780526e-02  3.0574725795522958e-03 -1.2634956045481703e-03 2.5003398034080866e-02  3.5022481145506245e-03 -1.7663972143641719e-03 3.4955736237249256e-02  3.8931063798658392e-03 -2.3268073487447910e-03 4.6171477004422784e-02  4.2313116600128488e-03 -2.9367170861699975e-03 5.8488261295489931e-02  4.5185717523598861e-03 -3.5884714240376251e-03 7.1748289170713089e-02  4.7570879109404916e-03 -4.2747773312347128e-03 8.5799730117611897e-02  4.9496067339551229e-03 -4.9887589207599139e-03 1.0049830026228926e-01  5.0994692903545656e-03 -5.7240330446593699e-03 1.1570899612255450e-01  5.2106549050804276e-03 -6.4747952248583518e-03 1.3130796869886344e-01  5.2878181856332524e-03 -7.2359117743696156e-03 1.4718451809926492e-01  5.3363185946875384e-03 -8.0030164767078537e-03 1.6324318643719726e-01  5.3622452445892073e-03 -8.7726110837802167e-03 1.7940592587933443e-01  5.3724605839182956e-03 -9.5421625630145428e-03 1.9561433475414938e-01  5.3747319176459191e-03 -1.0310160136581908e-02 2.1183213357014072e-01  0.0000000000000000e+00 0.0000000000000000e+00 0.0000000000000000e+00  7.3438303404081467e-04 -5.0529695581577976e-05 1.1844876031806152e-03  1.4246470547351054e-03 -2.2263030771275705e-04 4.3954400475226052e-03  2.0587042589907977e-03 -4.9601940244711296e-04 9.5328941323412925e-03  2.6355338870712756e-03 -8.5520829685769347e-04 1.6434885026351355e-02  3.1551603194914122e-03 -1.2893122591334596e-03 2.4934644713318226e-02  3.6179880149838097e-03 -1.7892743089093653e-03 3.4865155273051708e-02  4.0248645267754258e-03 -2.3467510430932076e-03 4.6061061600533838e-02  4.3770816201183001e-03 -2.9537968239075636e-03 5.8360116134753851e-02  4.6763994042407333e-03 -3.6027976109236277e-03 7.1604544510048579e-02  4.9250918864012965e-03 -4.2864953107984039e-03 8.5642499520134779e-02  5.1259983617313702e-03 -4.9980484791112599e-03 1.0032965344776168e-01  5.2825731755592031e-03 -5.7311096889780949e-03 1.1553093612497696e-01  5.3989304874632353e-03 -6.4799118294989006e-03 1.3112240927809307e-01  5.4798822863027377e-03 -7.2393599549037705e-03 1.4699325991626480e-01  5.5309685250646348e-03 -8.0051272307941537e-03 1.6304789132051623e-01  5.5584802377955144e-03 -8.7737548263131133e-03 1.7920808813063563e-01  5.5694979155971810e-03 -9.5427497021203199e-03 1.9541524485652345e-01  5.5720450090207801e-03 -1.0310579385237361e-02 2.1163280118026301e-01  0.0000000000000000e+00 0.0000000000000000e+00 0.0000000000000000e+00  7.5119431144817915e-04 -7.5316493829249826e-05 1.1822209134757370e-03  1.4623652972702312e-03 -2.5434277340784098e-04 4.3732513844397230e-03  2.1191732619519582e-03 -5.2850716306072952e-04 9.4876254228763758e-03  2.7175263018202099e-03 -8.8586887712056666e-04 1.6366797554102589e-02  3.2567616794179836e-03 -1.3172137026830307e-03 2.4845157689214633e-02  3.7371660432098355e-03 -1.8141182142728349e-03 3.4756124602756157e-02  4.1595886809329243e-03 -2.3684827243007018e-03 4.5934505253682562e-02  4.5253586761387771e-03 -2.9724665491112560e-03 5.8218096083097894e-02  4.8362950000248985e-03 -3.6185132129222912e-03 7.1449109632948121e-02  5.0947501284409240e-03 -4.2994069746033490e-03 8.5475652278546504e-02  5.3036617415734193e-03 -5.0083448873853315e-03 1.0015332472144838e-01  5.4666033679578842e-03 -5.7390181186334349e-03 1.1534696197868732e-01  5.5878301736699658e-03 -6.4856994314559553e-03 1.3093250731605660e-01  5.6723179542916505e-03 -7.2433350476223011e-03 1.4679900446105401e-01  5.7257939832733376e-03 -8.0076398348708742e-03 1.6285068728618995e-01  5.7547585943786084e-03 -8.7751962257733105e-03 1.7900914338561166e-01  5.7665114991246576e-03 -9.5435543224015578e-03 1.9521553712037423e-01  5.7693052908467362e-03 -1.0311218828734653e-02 2.1143300744199570e-01  0.0000000000000000e+00 0.0000000000000000e+00 0.0000000000000000e+00  7.6634728428354919e-04 -1.0057143035163724e-04 1.1642790278694297e-03  1.5003136222322484e-03 -2.8695940642681369e-04 4.3281052711435014e-03  2.1806636329502905e-03 -5.6245185026003973e-04 9.4180936700731747e-03  2.8007581308099713e-03 -9.1820389279234616e-04 1.6275560017961280e-02  3.3596072469685191e-03 -1.3467780641506280e-03 2.4734492786330626e-02  3.8575187625098173e-03 -1.8405112481502581e-03 3.4628175089673072e-02  4.2953909601516219e-03 -2.3916101728476691e-03 4.5791357144513517e-02  4.6746070524998568e-03 -2.9923661052021324e-03 5.8061785167143172e-02  4.9970514803776142e-03 -3.6352918170978652e-03 7.1281609124944745e-02  5.2651581553053890e-03 -4.3132194712795571e-03 8.5298854841436747e-02  5.4819647852811706e-03 -5.0193878325576532e-03 9.9969021784319365e-02  5.6511652913682382e-03 -5.7475290427374632e-03 1.1515682104831068e-01  5.7771569680458825e-03 -6.4919578738025490e-03 1.3073804760083588e-01  5.8650805933746723e-03 -7.2476638521903917e-03 1.4660157112165578e-01  5.9208522693863118e-03 -8.0104057792277448e-03 1.6265142479303391e-01  5.9511847171495281e-03 -8.7768091732537828e-03 1.7880896858305123e-01  5.9636013378873707e-03 -9.5444694227562552e-03 1.9501510843719730e-01  5.9665906348242044e-03 -1.0311978349860718e-02 2.1123267192392670e-01  0.0000000000000000e+00 0.0000000000000000e+00 0.0000000000000000e+00  7.7766641263529376e-04 -1.2922183356268183e-04 1.1299464071775399e-03  1.5363017794326609e-03 -3.2207924160945159e-04 4.2598315286055512e-03  2.2412459922315367e-03 -5.9843980277370112e-04 9.3242102849943054e-03  2.8835223458702148e-03 -9.5235666624369467e-04 1.6161008125447893e-02  3.4621993601770510e-03 -1.3779875318746873e-03 2.4602442351285097e-02  3.9777537244261359e-03 -1.8683775963391517e-03 3.4481091304398755e-02  4.4311778760413529e-03 -2.4160362685176581e-03 4.5631412277349938e-02  4.8239236659608532e-03 -3.0133903103234123e-03 5.7890996734155181e-02  5.1579455883755164e-03 -3.6530249385743146e-03 7.1101877737144825e-02  5.4357597898060167e-03 -4.3278226693049563e-03 8.5111964305695689e-02  5.6605032717144252e-03 -5.0310660753350852e-03 9.9776624060400609e-02  5.8359890015416320e-03 -5.7565302838250435e-03 1.1496041455573014e-01  5.9667548320355224e-03 -6.4985741308657696e-03 1.3053895226126272e-01  6.0581048938481291e-03 -7.2522326424416762e-03 1.4640090167101921e-01  6.1161426185391797e-03 -8.0133110758729940e-03 1.6245006338466400e-01  6.1477938450702216e-03 -8.7784806667220716e-03 1.7860753794210321e-01  6.1608144503380036e-03 -9.5453843356862744e-03 1.9481394400613788e-01  6.1639460949221726e-03 -1.0312739855345114e-02 2.1103179290576518e-01  0.0000000000000000e+00 0.0000000000000000e+00 0.0000000000000000e+00  7.8199188508915843e-04 -1.6384601870402164e-04 1.0758136972495325e-03  1.5665453512967817e-03 -3.6122220401882144e-04 4.1665145116340091e-03  2.2970427870737976e-03 -6.3721432426047805e-04 9.2049975746551736e-03  2.9621115363245372e-03 -9.8865934835657148e-04 1.6022489373637039e-02  3.5611407742661806e-03 -1.4109912474054992e-03 2.4448497211452556e-02  4.0948336348362825e-03 -1.8977847294123868e-03 3.4314454530379492e-02  4.5642850413641044e-03 -2.4417873729589931e-03 4.5454325107155621e-02  4.9710145347844435e-03 -3.0355402363967379e-03 5.7705451315188908e-02  5.3170433285379126e-03 -3.6716946016850959e-03 7.0909697834205337e-02  5.6049652205530905e-03 -4.3431822038164196e-03 8.4914821115211619e-02  5.8380111139894695e-03 -5.0433302840183067e-03 9.9576025971174764e-02  6.0201070951851361e-03 -5.7659586474715120e-03 1.1475768611967022e-01  6.1559252791189498e-03 -6.5054722915232717e-03 1.3033520849358499e-01  6.2509265936668990e-03 -7.2569541216793796e-03 1.4619702030049722e-01  6.3113949967034426e-03 -8.0162587117726149e-03 1.6224665641083588e-01  6.3444640089063880e-03 -8.7801068567229142e-03 1.7840492390237450e-01  6.3581304471838733e-03 -9.5461902603497344e-03 1.9461212342968109e-01  6.3613952747451118e-03 -1.0313380420559905e-02 2.1083044783670202e-01  0.0000000000000000e+00 0.0000000000000000e+00 0.0000000000000000e+00  7.6482012656712303e-04 -2.0244864616328318e-04 1.0001759309265033e-03  1.5745215912244645e-03 -4.0245598838447628e-04 4.0480649082667340e-03  2.3317483584349868e-03 -6.7689078752041117e-04 9.0613752226414140e-03  3.0211766060489944e-03 -1.0252976414711380e-03 1.5861243991496611e-02  3.6424031228922942e-03 -1.4441002813588883e-03 2.4273966976227156e-02  4.1961830611766931e-03 -1.9272046681367992e-03 3.4129544869099429e-02  4.6836228282771501e-03 -2.4675112404741080e-03 4.5261307507873882e-02  5.1062639297900867e-03 -3.0576419129691892e-03 5.7506276659113439e-02  5.4661657617501892e-03 -3.6903012191204401e-03 7.0706105868787977e-02  5.7659765014689670e-03 -4.3584651907619303e-03 8.4708366675100052e-02  6.0089985068137123e-03 -5.0555038296802067e-03 9.9368071605970706e-02  6.1992478181837523e-03 -5.7752808615330739e-03 1.1454938107806541e-01  6.3415064943357540e-03 -6.5122471309326914e-03 1.3012746211251983e-01  6.4413667859697992e-03 -7.2615333244187476e-03 1.4599047318696881e-01  6.5052667482789978e-03 -8.0190435813917230e-03 1.6204165096155135e-01  6.5405189084888592e-03 -8.7815509227815464e-03 1.7820147505348860e-01  6.5553482575764089e-03 -9.5467941468042310e-03 1.9440988069641565e-01  6.5589680757963146e-03 -1.0313814811318911e-02 2.1062874145011501e-01  0.0000000000000000e+00 0.0000000000000000e+00 0.0000000000000000e+00  3.1588373949043458e-04 -1.7649037440966421e-05 1.1041643376856758e-03  5.9623974251518674e-04 -1.8242724108521593e-04 4.3398158042645138e-03  8.5035575349237951e-04 -4.4210454698966523e-04 9.5260039994112325e-03  1.0811303914157059e-03 -7.8748051222638968e-04 1.6480873523055883e-02  1.2890936966116697e-03 -1.2087661263876725e-03 2.5032121224717981e-02  1.4744105431659217e-03 -1.6971999271886572e-03 3.5010793467916711e-02  1.6373857061607149e-03 -2.2445218689536831e-03 4.6250814779556934e-02  1.7785131322947106e-03 -2.8427921811412936e-03 5.8589662426921416e-02  1.8984818443585638e-03 -3.4843649871168546e-03 7.1869466265105680e-02  1.9981900026973774e-03 -4.1619266052729349e-03 8.5938367449562181e-02  2.0787645717591555e-03 -4.8685609571845539e-03 1.0065207807291507e-01  2.1415818022324034e-03 -5.5978280857670402e-03 1.1587561007479744e-01  2.1882861334227067e-03 -6.3438503019445577e-03 1.3148514928303776e-01  2.2208064120578324e-03 -7.1014035150027887e-03 1.4737005185082203e-01  2.2413691711499787e-03 -7.8660124892575133e-03 1.6343494005365669e-01  2.2525109080484967e-03 -8.6340481817765730e-03 1.7960187489828999e-01  2.2570940554121140e-03 -9.4028185465526992e-03 1.9581260380258642e-01  2.2582276044578564e-03 -1.0170705995866103e-02 2.1203099941719358e-01  0.0000000000000000e+00 0.0000000000000000e+00 0.0000000000000000e+00  3.2449314287372438e-04 -3.8586965518762272e-05 1.1348744364588679e-03  6.3450448720947723e-04 -1.9915494487447838e-04 4.3639851923309688e-03  9.1259920596989234e-04 -4.5730195205116091e-04 9.5268487193709631e-03  1.1652898978210650e-03 -8.0120892931389979e-04 1.6455663031212080e-02  1.3929794983721670e-03 -1.2210357729136409e-03 2.4981385134359935e-02  1.5958858111035357e-03 -1.7080243879776247e-03 3.4936153589893500e-02  1.7743691055959259e-03 -2.2539289034666388e-03 4.6154284152114866e-02  1.9289790985474919e-03 -2.8508233961437564e-03 5.8473400974514124e-02  2.0604695178224317e-03 -3.4910758405869891e-03 7.1735684686620130e-02  2.1698180984147377e-03 -4.1673872665416375e-03 8.5789282869847050e-02  2.2582495774723737e-03 -4.8728574962231428e-03 1.0048988734496850e-01  2.3272582703642770e-03 -5.6010636727834339e-03 1.1570246811106721e-01  2.3786285040042535e-03 -6.3461462722217941e-03 1.3130314769400059e-01  2.4144520427701759e-03 -7.1029002248382649e-03 1.4718119606891772e-01  2.4371420864268555e-03 -7.8668699895342257e-03 1.6324112389003154e-01  2.4494450382434273e-03 -8.6344471357122487e-03 1.7940485060828240e-01  2.4544629423782728e-03 -9.4029610001897350e-03 1.9561393713743386e-01  2.4557075934239251e-03 -1.0170756941402400e-02 2.1183199980940420e-01  0.0000000000000000e+00 0.0000000000000000e+00 0.0000000000000000e+00  3.4196714937120360e-04 -5.2840071926390586e-05 1.1476241060703791e-03  6.7502558572977414e-04 -2.1481758732570935e-04 4.3637518987794310e-03  9.7638498634479009e-04 -4.7246827330042675e-04 9.5045845262438870e-03  1.2505146982165509e-03 -8.1519290727480244e-04 1.6409406217832476e-02  1.4976058908676799e-03 -1.2336335887186750e-03 2.4911803876142578e-02  1.7178425510709779e-03 -1.7191823897206348e-03 3.4844869157405409e-02  1.9116101996255301e-03 -2.2636527466759764e-03 4.6043269104259529e-02  2.0795055033618068e-03 -2.8591474166455746e-03 5.8344750555743341e-02  2.2223458243432648e-03 -3.4980536013231849e-03 7.1591523150398559e-02  2.3411903978666055e-03 -4.1730891373843657e-03 8.5631718429191206e-02  2.4373648703456077e-03 -4.8773706220769158e-03 1.0032098397497309e-01  2.5124852470709406e-03 -5.6044927002764887e-03 1.1552422228429143e-01  2.5684795363599155e-03 -6.3486142191618751e-03 1.3111746560279894e-01  2.6076062042484542e-03 -7.1045492067360154e-03 1.4698986969590908e-01  2.6324687509988644e-03 -7.8678616396142768e-03 1.6304580520831244e-01  2.6460263671650485e-03 -8.6349633015193970e-03 1.7920702297913882e-01  2.6516146996467833e-03 -9.4032072043622166e-03 1.9541487932695462e-01  2.6530427992814869e-03 -1.0170928153719580e-02 2.1163271904073597e-01  0.0000000000000000e+00 0.0000000000000000e+00 0.0000000000000000e+00  3.6174297359521255e-04 -6.5544179821526059e-05 1.1436967208388184e-03  7.1765204113312083e-04 -2.3032294217740785e-04 4.3398145867579148e-03  1.0419773026554059e-03 -4.8827638268087635e-04 9.4579331511372971e-03  1.3373335575410713e-03 -8.3011283372188562e-04 1.6340209913108080e-02  1.6036183232232195e-03 -1.2472021287841470e-03 2.4821386270759447e-02  1.8409787430432192e-03 -1.7312552365526927e-03 3.4735040870751847e-02  2.0498306360654177e-03 -2.2742051463512216e-03 4.5916028329053324e-02  2.2308206714841362e-03 -2.8682049726309745e-03 5.8202149558471389e-02  2.3848324419577095e-03 -3.5056694383558658e-03 7.1435604392135310e-02  2.5130092536542184e-03 -4.1793368381522894e-03 8.5464478547840728e-02  2.6167803269982180e-03 -4.8823425312714205e-03 1.0014434756476778e-01  2.6978861328523407e-03 -5.6083000554923148e-03 1.1534001822659162e-01  2.7584012281056019e-03 -6.3513878162044035e-03 1.3092740322483018e-01  2.8007537143109221e-03 -7.1064400421290619e-03 1.4679551384668510e-01  2.8277405073652878e-03 -7.8690411430067369e-03 1.6284855007064089e-01  2.8425369090384015e-03 -8.6356234449402377e-03 1.7900806463584995e-01  2.8487092689194475e-03 -9.4035650363645494e-03 1.9521518403179453e-01  2.8503237339998319e-03 -1.0171225733573448e-02 2.1143295784074942e-01  0.0000000000000000e+00 0.0000000000000000e+00 0.0000000000000000e+00  3.8081966263119499e-04 -7.9100776426756816e-05 1.1246579075545437e-03  7.6053716059947354e-04 -2.4682769083875878e-04 4.2933049373716763e-03  1.1080969965177013e-03 -5.0534235540896115e-04 9.3871226234417959e-03  1.4247462942038468e-03 -8.4636017931634627e-04 1.6247872130446966e-02  1.7102021428180864e-03 -1.2620462287889691e-03 2.4709772353342648e-02  1.9646387560442696e-03 -1.7444961607137887e-03 3.4606267768046331e-02  2.1885194870781741e-03 -2.2857981749880422e-03 4.5772168258836378e-02  2.3825467579708841e-03 -2.8781708297826144e-03 5.8045230471410462e-02  2.5476728126578273e-03 -3.5140629866981256e-03 7.1267593636314228e-02  2.6851263239955274e-03 -4.1862367617476592e-03 8.5287263075552927e-02  2.7964409601127817e-03 -4.8878484424487376e-03 9.9959712477437429e-02  2.8834823919122081e-03 -5.6125322155149079e-03 1.1514962374931306e-01  2.9484724321256510e-03 -6.3544876881588136e-03 1.3073276017296692e-01  2.9940095430180370e-03 -7.1085709317040106e-03 1.4659795779710533e-01  3.0230850049167259e-03 -7.8703883975421787e-03 1.6264921466314225e-01  3.0390923985010496e-03 -8.6363939403658919e-03 1.7880785478672487e-01  3.0458307152755287e-03 -9.4039916962105046e-03 1.9501474697352145e-01  3.0476104019133087e-03 -1.0171600306634594e-02 2.1123263190246563e-01  0.0000000000000000e+00 0.0000000000000000e+00 0.0000000000000000e+00  3.9812793391437332e-04 -9.5358842852831248e-05 1.0900670225735228e-03  8.0251524477879940e-04 -2.6543750017902563e-04 4.2242042652272877e-03  1.1737692813803470e-03 -5.2423228138655394e-04 9.2922793639690082e-03  1.5118959591170302e-03 -8.6425339493570073e-04 1.6132418623888457e-02  1.8166142614830696e-03 -1.2783806369560074e-03 2.4576911587776598e-02  2.0881932660533299e-03 -1.7590694114113401e-03 3.4458466264881020e-02  2.3271585495362622e-03 -2.2985636856115389e-03 4.5611595078486999e-02  2.5342714885710389e-03 -2.8891509942672172e-03 5.7873899590535384e-02  2.7105536569850689e-03 -3.5233170607074770e-03 7.1087401891523655e-02  2.8573188595341047e-03 -4.1938499215281788e-03 8.5099989968608430e-02  2.9762045566352822e-03 -4.8939286471968045e-03 9.9767004925779265e-02  3.0692007758950988e-03 -5.6172098855529528e-03 1.1495297427279712e-01  3.1386756672415334e-03 -6.3579163012083576e-03 1.3053348186741187e-01  3.1873971098038841e-03 -7.1109277584855335e-03 1.4639715761282984e-01  3.2185499221191209e-03 -7.8718748634999565e-03 1.6244776596898430e-01  3.2357469554331916e-03 -8.6372347953362991e-03 1.7860637042404501e-01  3.2430268413589799e-03 -9.4044381825156339e-03 1.9481355302497283e-01  3.2449426891919841e-03 -1.0171989457463559e-02 2.1103173730743255e-01  0.0000000000000000e+00 0.0000000000000000e+00 0.0000000000000000e+00  4.1294042600843462e-04 -1.1660584390109450e-04 1.0368914795452497e-03  8.4233067511748966e-04 -2.8764846420500375e-04 4.1308650153390539e-03  1.2375947685578899e-03 -5.4594326156202390e-04 9.1727071252559033e-03  1.5974023061939928e-03 -8.8450873517519589e-04 1.5993457649059944e-02  1.9215789338983462e-03 -1.2967662917383565e-03 2.4422519932026543e-02  2.2105022953207995e-03 -1.7754374818017152e-03 3.4291407293940673e-02  2.4647527844799790e-03 -2.3128887539573613e-03 4.5434120107627894e-02  2.6851448821470663e-03 -2.9014669721717911e-03 5.7688004027122451e-02  2.8727658641376210e-03 -3.5336928052458172e-03 7.0894910176625206e-02  3.0290118093274083e-03 -4.2023809469990568e-03 8.4902572896486464e-02  3.1556212453523733e-03 -4.9007350287571232e-03 9.9566169931875337e-02  3.2547057822118154e-03 -5.6224364202049487e-03 1.1475004458447478e-01  3.3287770472054268e-03 -6.3617333763712619e-03 1.3032957086270211e-01  3.3807693979738145e-03 -7.11