<?xml version="1.0"?>
<VTKFile type="UnstructuredGrid"  version="0.1"  >
<UnstructuredGrid>
<Piece  NumberOfPoints="760" NumberOfCells="3024">
<Points>
<DataArray  type="Float64"  NumberOfComponents="3"  format="ascii">0 0 0  0.05555555555555555 0 0  0.1111111111111111 0 0  0.1666666666666667 0 0  0.2222222222222222 0 0  0.2777777777777778 0 0  0.3333333333333333 0 0  0.3888888888888889 0 0  0.4444444444444444 0 0  0.5 0 0  0.5555555555555556 0 0  0.6111111111111112 0 0  0.6666666666666666 0 0  0.7222222222222222 0 0  0.7777777777777778 0 0  0.8333333333333334 0 0  0.8888888888888888 0 0  0.9444444444444444 0 0  1 0 0  0 0.01428571428571429 0  0.05555555555555555 0.01428571428571429 0  0.1111111111111111 0.01428571428571429 0  0.1666666666666667 0.01428571428571429 0  0.2222222222222222 0.01428571428571429 0  0.2777777777777778 0.01428571428571429 0  0.3333333333333333 0.01428571428571429 0  0.3888888888888889 0.01428571428571429 0  0.4444444444444444 0.01428571428571429 0  0.5 0.01428571428571429 0  0.5555555555555556 0.01428571428571429 0  0.6111111111111112 0.01428571428571429 0  0.6666666666666666 0.01428571428571429 0  0.7222222222222222 0.01428571428571429 0  0.7777777777777778 0.01428571428571429 0  0.8333333333333334 0.01428571428571429 0  0.8888888888888888 0.01428571428571429 0  0.9444444444444444 0.01428571428571429 0  1 0.01428571428571429 0  0 0.02857142857142857 0  0.05555555555555555 0.02857142857142857 0  0.1111111111111111 0.02857142857142857 0  0.1666666666666667 0.02857142857142857 0  0.2222222222222222 0.02857142857142857 0  0.2777777777777778 0.02857142857142857 0  0.3333333333333333 0.02857142857142857 0  0.3888888888888889 0.02857142857142857 0  0.4444444444444444 0.02857142857142857 0  0.5 0.02857142857142857 0  0.5555555555555556 0.02857142857142857 0  0.6111111111111112 0.02857142857142857 0  0.6666666666666666 0.02857142857142857 0  0.7222222222222222 0.02857142857142857 0  0.7777777777777778 0.02857142857142857 0  0.8333333333333334 0.02857142857142857 0  0.8888888888888888 0.02857142857142857 0  0.9444444444444444 0.02857142857142857 0  1 0.02857142857142857 0  0 0.04285714285714286 0  0.05555555555555555 0.04285714285714286 0  0.1111111111111111 0.04285714285714286 0  0.1666666666666667 0.04285714285714286 0  0.2222222222222222 0.04285714285714286 0  0.2777777777777778 0.04285714285714286 0  0.3333333333333333 0.04285714285714286 0  0.3888888888888889 0.04285714285714286 0  0.4444444444444444 0.04285714285714286 0  0.5 0.04285714285714286 0  0.5555555555555556 0.04285714285714286 0  0.6111111111111112 0.04285714285714286 0  0.6666666666666666 0.04285714285714286 0  0.7222222222222222 0.04285714285714286 0  0.7777777777777778 0.04285714285714286 0  0.8333333333333334 0.04285714285714286 0  0.8888888888888888 0.04285714285714286 0  0.9444444444444444 0.04285714285714286 0  1 0.04285714285714286 0  0 0.05714285714285715 0  0.05555555555555555 0.05714285714285715 0  0.1111111111111111 0.05714285714285715 0  0.1666666666666667 0.05714285714285715 0  0.2222222222222222 0.05714285714285715 0  0.2777777777777778 0.05714285714285715 0  0.3333333333333333 0.05714285714285715 0  0.3888888888888889 0.05714285714285715 0  0.4444444444444444 0.05714285714285715 0  0.5 0.05714285714285715 0  0.5555555555555556 0.05714285714285715 0  0.6111111111111112 0.05714285714285715 0  0.6666666666666666 0.05714285714285715 0  0.7222222222222222 0.05714285714285715 0  0.7777777777777778 0.05714285714285715 0  0.8333333333333334 0.05714285714285715 0  0.8888888888888888 0.05714285714285715 0  0.9444444444444444 0.05714285714285715 0  1 0.05714285714285715 0  0 0.07142857142857142 0  0.05555555555555555 0.07142857142857142 0  0.1111111111111111 0.07142857142857142 0  0.1666666666666667 0.07142857142857142 0  0.2222222222222222 0.07142857142857142 0  0.2777777777777778 0.07142857142857142 0  0.3333333333333333 0.07142857142857142 0  0.3888888888888889 0.07142857142857142 0  0.4444444444444444 0.07142857142857142 0  0.5 0.07142857142857142 0  0.5555555555555556 0.07142857142857142 0  0.6111111111111112 0.07142857142857142 0  0.6666666666666666 0.07142857142857142 0  0.7222222222222222 0.07142857142857142 0  0.7777777777777778 0.07142857142857142 0  0.8333333333333334 0.07142857142857142 0  0.8888888888888888 0.07142857142857142 0  0.9444444444444444 0.07142857142857142 0  1 0.07142857142857142 0  0 0.08571428571428573 0  0.05555555555555555 0.08571428571428573 0  0.1111111111111111 0.08571428571428573 0  0.1666666666666667 0.08571428571428573 0  0.2222222222222222 0.08571428571428573 0  0.2777777777777778 0.08571428571428573 0  0.3333333333333333 0.08571428571428573 0  0.3888888888888889 0.08571428571428573 0  0.4444444444444444 0.08571428571428573 0  0.5 0.08571428571428573 0  0.5555555555555556 0.08571428571428573 0  0.6111111111111112 0.08571428571428573 0  0.6666666666666666 0.08571428571428573 0  0.7222222222222222 0.08571428571428573 0  0.7777777777777778 0.08571428571428573 0  0.8333333333333334 0.08571428571428573 0  0.8888888888888888 0.08571428571428573 0  0.9444444444444444 0.08571428571428573 0  1 0.08571428571428573 0  0 0.1 0  0.05555555555555555 0.1 0  0.1111111111111111 0.1 0  0.1666666666666667 0.1 0  0.2222222222222222 0.1 0  0.2777777777777778 0.1 0  0.3333333333333333 0.1 0  0.3888888888888889 0.1 0  0.4444444444444444 0.1 0  0.5 0.1 0  0.5555555555555556 0.1 0  0.6111111111111112 0.1 0  0.6666666666666666 0.1 0  0.7222222222222222 0.1 0  0.7777777777777778 0.1 0  0.8333333333333334 0.1 0  0.8888888888888888 0.1 0  0.9444444444444444 0.1 0  1 0.1 0  0 0 0.01  0.05555555555555555 0 0.01  0.1111111111111111 0 0.01  0.1666666666666667 0 0.01  0.2222222222222222 0 0.01  0.2777777777777778 0 0.01  0.3333333333333333 0 0.01  0.3888888888888889 0 0.01  0.4444444444444444 0 0.01  0.5 0 0.01  0.5555555555555556 0 0.01  0.6111111111111112 0 0.01  0.6666666666666666 0 0.01  0.7222222222222222 0 0.01  0.7777777777777778 0 0.01  0.8333333333333334 0 0.01  0.8888888888888888 0 0.01  0.9444444444444444 0 0.01  1 0 0.01  0 0.01428571428571429 0.01  0.05555555555555555 0.01428571428571429 0.01  0.1111111111111111 0.01428571428571429 0.01  0.1666666666666667 0.01428571428571429 0.01  0.2222222222222222 0.01428571428571429 0.01  0.2777777777777778 0.01428571428571429 0.01  0.3333333333333333 0.01428571428571429 0.01  0.3888888888888889 0.01428571428571429 0.01  0.4444444444444444 0.01428571428571429 0.01  0.5 0.01428571428571429 0.01  0.5555555555555556 0.01428571428571429 0.01  0.6111111111111112 0.01428571428571429 0.01  0.6666666666666666 0.01428571428571429 0.01  0.7222222222222222 0.01428571428571429 0.01  0.7777777777777778 0.01428571428571429 0.01  0.8333333333333334 0.01428571428571429 0.01  0.8888888888888888 0.01428571428571429 0.01  0.9444444444444444 0.01428571428571429 0.01  1 0.01428571428571429 0.01  0 0.02857142857142857 0.01  0.05555555555555555 0.02857142857142857 0.01  0.1111111111111111 0.02857142857142857 0.01  0.1666666666666667 0.02857142857142857 0.01  0.2222222222222222 0.02857142857142857 0.01  0.2777777777777778 0.02857142857142857 0.01  0.3333333333333333 0.02857142857142857 0.01  0.3888888888888889 0.02857142857142857 0.01  0.4444444444444444 0.02857142857142857 0.01  0.5 0.02857142857142857 0.01  0.5555555555555556 0.02857142857142857 0.01  0.6111111111111112 0.02857142857142857 0.01  0.6666666666666666 0.02857142857142857 0.01  0.7222222222222222 0.02857142857142857 0.01  0.7777777777777778 0.02857142857142857 0.01  0.8333333333333334 0.02857142857142857 0.01  0.8888888888888888 0.02857142857142857 0.01  0.9444444444444444 0.02857142857142857 0.01  1 0.02857142857142857 0.01  0 0.04285714285714286 0.01  0.05555555555555555 0.04285714285714286 0.01  0.1111111111111111 0.04285714285714286 0.01  0.1666666666666667 0.04285714285714286 0.01  0.2222222222222222 0.04285714285714286 0.01  0.2777777777777778 0.04285714285714286 0.01  0.3333333333333333 0.04285714285714286 0.01  0.3888888888888889 0.04285714285714286 0.01  0.4444444444444444 0.04285714285714286 0.01  0.5 0.04285714285714286 0.01  0.5555555555555556 0.04285714285714286 0.01  0.6111111111111112 0.04285714285714286 0.01  0.6666666666666666 0.04285714285714286 0.01  0.7222222222222222 0.04285714285714286 0.01  0.7777777777777778 0.04285714285714286 0.01  0.8333333333333334 0.04285714285714286 0.01  0.8888888888888888 0.04285714285714286 0.01  0.9444444444444444 0.04285714285714286 0.01  1 0.04285714285714286 0.01  0 0.05714285714285715 0.01  0.05555555555555555 0.05714285714285715 0.01  0.1111111111111111 0.05714285714285715 0.01  0.1666666666666667 0.05714285714285715 0.01  0.2222222222222222 0.05714285714285715 0.01  0.2777777777777778 0.05714285714285715 0.01  0.3333333333333333 0.05714285714285715 0.01  0.3888888888888889 0.05714285714285715 0.01  0.4444444444444444 0.05714285714285715 0.01  0.5 0.05714285714285715 0.01  0.5555555555555556 0.05714285714285715 0.01  0.6111111111111112 0.05714285714285715 0.01  0.6666666666666666 0.05714285714285715 0.01  0.7222222222222222 0.05714285714285715 0.01  0.7777777777777778 0.05714285714285715 0.01  0.8333333333333334 0.05714285714285715 0.01  0.8888888888888888 0.05714285714285715 0.01  0.9444444444444444 0.05714285714285715 0.01  1 0.05714285714285715 0.01  0 0.07142857142857142 0.01  0.05555555555555555 0.07142857142857142 0.01  0.1111111111111111 0.07142857142857142 0.01  0.1666666666666667 0.07142857142857142 0.01  0.2222222222222222 0.07142857142857142 0.01  0.2777777777777778 0.07142857142857142 0.01  0.3333333333333333 0.07142857142857142 0.01  0.3888888888888889 0.07142857142857142 0.01  0.4444444444444444 0.07142857142857142 0.01  0.5 0.07142857142857142 0.01  0.5555555555555556 0.07142857142857142 0.01  0.6111111111111112 0.07142857142857142 0.01  0.6666666666666666 0.07142857142857142 0.01  0.7222222222222222 0.07142857142857142 0.01  0.7777777777777778 0.07142857142857142 0.01  0.8333333333333334 0.07142857142857142 0.01  0.8888888888888888 0.07142857142857142 0.01  
[...]
<PointData  Vectors="f_33"> 
<DataArray  type="Float64"  Name="f_33"  NumberOfComponents="3" format="ascii">0.0000000000000000e+00 0.0000000000000000e+00 0.0000000000000000e+00  3.4984160440614375e-03 1.8175553244218276e-04 5.1127700809505960e-03  6.5153664344684619e-03 -2.9052664013738997e-04 1.9574191081269673e-02  9.2576857317624873e-03 -1.0498077996419046e-03 4.2695832248010067e-02  1.1730788646756843e-02 -2.0297478013097873e-03 7.3623844172153757e-02  1.3939806526269504e-02 -3.1929721545626340e-03 1.1155052503145717e-01  1.5889413207320898e-02 -4.5128716486932275e-03 1.5568807810397670e-01  1.7586261934485831e-02 -5.9668387903074787e-03 2.0526847894925523e-01  1.9039297718178888e-02 -7.5342007761188259e-03 2.5954801958415752e-01  2.0259776091185278e-02 -9.1956126376952028e-03 3.1781330329240393e-01  2.1261266267561956e-02 -1.0932960964976703e-02 3.7938780949895301e-01  2.2059644946899864e-02 -1.2729449878550958e-02 4.4363868048332139e-01  2.2673072839188631e-02 -1.4569752104725133e-02 5.0998354656466294e-01  2.3121956154369308e-02 -1.6440182249435848e-02 5.7789728599436752e-01  2.3428899936699187e-02 -1.8328876998609522e-02 6.4691866529409359e-01  2.3618662181945707e-02 -2.0225978521116322e-02 7.1665684129457796e-01  2.3718131311575109e-02 -2.2123820672997438e-02 7.8679773602520264e-01  2.3756384717806004e-02 -2.4017104572646868e-02 8.5711039152086455e-01  2.3764539947254363e-02 -2.5903235068657684e-02 9.2745420732558448e-01  0.0000000000000000e+00 0.0000000000000000e+00 0.0000000000000000e+00  3.3534808494668934e-03 1.0131389222524108e-05 5.2630876382500896e-03  6.4564439730695044e-03 -4.4192766326949439e-04 1.9680171584015790e-02  9.2732111037615497e-03 -1.1862391016532695e-03 4.2695725635624932e-02  1.1815302235335201e-02 -2.1517731557464076e-03 7.3506997042253927e-02  1.4087443532470996e-02 -3.3009004104329440e-03 1.1132028741005592e-01  1.6094324410584879e-02 -4.6070602944438153e-03 1.5535247002374555e-01  1.7842650307711816e-02 -6.0477594909421461e-03 2.0483716326120727e-01  1.9341425791147979e-02 -7.6024485755551621e-03 2.5903121288237491e-01  2.0601989811248909e-02 -9.2519071351834133e-03 3.1722132490108579e-01  2.1638033658012833e-02 -1.0978146421772169e-02 3.7873085818759655e-01  2.2465602261797113e-02 -1.2764494343031011e-02 4.4292669449951877e-01  2.3103074025713207e-02 -1.4595745594045171e-02 5.0922609459148238e-01  2.3571123527780805e-02 -1.6458334276362313e-02 5.7710347011129282e-01  2.3892674897191091e-02 -1.8340513652596157e-02 6.4609702892481857e-01  2.4092854020573581e-02 -2.0232539126068070e-02 7.1581527796001321e-01  2.4198956029959178e-02 -2.2126854081711222e-02 7.8594339080810172e-01  2.4240514105358591e-02 -2.4018250777625080e-02 8.5624952000805121e-01  2.4249751072544935e-02 -2.5903824423792941e-02 9.2659182055050160e-01  0.0000000000000000e+00 0.0000000000000000e+00 0.0000000000000000e+00  3.3565441315754441e-03 -1.2125728060064600e-04 5.3232369085833417e-03  6.5041994077598593e-03 -5.9084136660563825e-04 1.9682685200063461e-02  9.3796775959040478e-03 -1.3298694346372587e-03 4.2596491810152508e-02  1.1979028921570156e-02 -2.2836162801062681e-03 7.3299905867182089e-02  1.4304003637505912e-02 -3.4189109836595139e-03 1.1100959494355152e-01  1.6358588219476104e-02 -4.7108075692660302e-03 1.5494624138547661e-01  1.8149347839230508e-02 -6.1374450033982349e-03 2.0434482679496146e-01  1.9685330282362735e-02 -7.6785788759103834e-03 2.5846260412872107e-01  2.0978005389472722e-02 -9.3151835201797668e-03 3.1658627330353195e-01  2.2041257735379231e-02 -1.1029425917025611e-02 3.7803897579327839e-01  2.2891379811088502e-02 -1.2804774677042182e-02 4.4218724060708159e-01  2.3547048871956078e-02 -1.4626158213220860e-02 5.0844786929349328e-01  2.4029288350058041e-02 -1.6480139924273635e-02 5.7629471943852006e-01  2.4361420329159136e-02 -1.8355098429750662e-02 6.4526535523272321e-01  2.4569015619693723e-02 -2.0241409666282795e-02 7.1496755252017763e-01  2.4679851333611273e-02 -2.2131632073313416e-02 7.8508566431949534e-01  2.4723957142039357e-02 -2.4020670725506683e-02 8.5538691480234341e-01  2.4734135275313495e-02 -2.5905532116426266e-02 9.2572828637951021e-01  0.0000000000000000e+00 0.0000000000000000e+00 0.0000000000000000e+00  3.3835657123373599e-03 -2.3546387823403936e-04 5.3075996439949612e-03  6.5761458729108766e-03 -7.3567260351181511e-04 1.9578108273156418e-02  9.5085788554093390e-03 -1.4769796376547890e-03 4.2389533865615538e-02  1.2163216511662699e-02 -2.4214672870047781e-03 7.2992334239248752e-02  1.4538818221800275e-02 -3.5434646293771620e-03 1.1060829638422497e-01  1.6638841697684620e-02 -4.8208689195732551e-03 1.5445999416945905e-01  1.8469806012203376e-02 -6.2329360989667191e-03 2.0378305537061484e-01  2.0040848812241989e-02 -7.7599122639032576e-03 2.5783482450046818e-01  2.1363601046933297e-02 -9.3830393294884202e-03 3.1590181681223062e-01  2.2452165053165087e-02 -1.1084671147328494e-02 3.7730682696232681e-01  2.3323103137257183e-02 -1.2848432624622961e-02 4.4141592032822063e-01  2.3995412572180123e-02 -1.4659395684204721e-02 5.0764533620600727e-01  2.4490486081059446e-02 -1.6504260649709522e-02 5.7546827927395161e-01  2.4832063614964817e-02 -1.8371538265559151e-02 6.4442157441194925e-01  2.5046181259158549e-02 -2.0251731045432438e-02 7.1411217470785393e-01  2.5161120640172875e-02 -2.2137517340307857e-02 7.8422352871288181e-01  2.5207414914898103e-02 -2.4023926912211606e-02 8.5452186381417305e-01  2.5218371922317271e-02 -2.5908096576608697e-02 9.2486294377359546e-01  0.0000000000000000e+00 0.0000000000000000e+00 0.0000000000000000e+00  3.4042257454024189e-03 -3.4797976358738597e-04 5.2221641433913210e-03  6.6498560339819292e-03 -8.8082749119443250e-04 1.9371527571202706e-02  9.6425246561263455e-03 -1.6272388038845629e-03 4.2075325094018796e-02  1.2353348283774235e-02 -2.5637470196599437e-03 7.2583011299332589e-02  1.4779549800875397e-02 -3.6726996213873957e-03 1.1011452320015726e-01  1.6924649277850513e-02 -4.9354030623404901e-03 1.5389174262589750e-01  1.8795333071644309e-02 -6.3325079332267635e-03 2.0314994097283606e-01  2.0400906720327395e-02 -7.8448704328782076e-03 2.5714611793185194e-01  2.1753194003214762e-02 -9.4540506019289289e-03 3.1516637666501696e-01  2.2866529997820510e-02 -1.1142611672472685e-02 3.7653301559154856e-01  2.3757755457989506e-02 -1.2894346383392900e-02 4.4061151683581229e-01  2.4446193872585936e-02 -1.4694477487097436e-02 5.0681744994745026e-01  2.4953612489546126e-02 -1.6529847977649326e-02 5.7462326498573790e-01  2.5304173991806938e-02 -1.8389106012763834e-02 6.4356494947501142e-01  2.5524385448109758e-02 -2.0262886064282608e-02 7.1324853930200105e-01  2.5643044455196166e-02 -2.2143991015285643e-02 7.8335649020859055e-01  2.5691205664717692e-02 -2.4027584256136214e-02 8.5365395411355682e-01  2.5702721949072169e-02 -2.5911108443015880e-02 9.2399546280182887e-01  0.0000000000000000e+00 0.0000000000000000e+00 0.0000000000000000e+00  3.4076074126525480e-03 -4.7200442932110752e-04 5.0637559595051026e-03  6.7146483504776670e-03 -1.0334407545393438e-03 1.9062285123549978e-02  9.7721964808487466e-03 -1.7832365045010810e-03 4.1653527149463583e-02  1.2541181810418609e-02 -2.7110730638229687e-03 7.2071258117954812e-02  1.5018959958950272e-02 -3.8065096919224347e-03 1.0952740170589539e-01  1.7209750575700348e-02 -5.0540412245863491e-03 1.5324057773971175e-01  1.9120610076723450e-02 -6.4356959609741171e-03 2.0244462080125111e-01  2.0761079494494093e-02 -7.9329547978270881e-03 2.5639570262283151e-01  2.2143198374187191e-02 -9.5277084006894480e-03 3.1437926481609535e-01  2.3281540844442995e-02 -1.1202737890137529e-02 3.7571695048982612e-01  2.4193226007474606e-02 -1.2942010129190582e-02 4.3977353453558177e-01  2.4897901087374934e-02 -1.4730903988537892e-02 5.0596380702668031e-01  2.5417704564798374e-02 -1.6556410018207790e-02 5.7375936024802721e-01  2.5777218324896448e-02 -1.8407318704428514e-02 6.4269524500116415e-01  2.6003417359051172e-02 -2.0274402210606068e-02 7.1237648341961590e-01  2.6125620083221522e-02 -2.2150594148255119e-02 7.8248444547020335e-01  2.6175431279113707e-02 -2.4031199459666166e-02 8.5278312426599945e-01  2.6187310785453465e-02 -2.5914097042043886e-02 9.2312582535668009e-01  0.0000000000000000e+00 0.0000000000000000e+00 0.0000000000000000e+00  3.3781706013197880e-03 -6.1901125196929985e-04 4.8172140352152918e-03  6.7524802764783853e-03 -1.2002744917422202e-03 1.8642049916679695e-02  9.8793974972232659e-03 -1.9482287359264183e-03 4.1119988088922518e-02  1.2709440741398192e-02 -2.8648598738094631e-03 7.1454374514395139e-02  1.5241291335665161e-02 -3.9454894289905305e-03 1.0884487126020306e-01  1.7480118463834505e-02 -5.1770127810804156e-03 1.5250483710041890e-01  1.9433383744031800e-02 -6.5425487706989643e-03 2.0166574869343751e-01  2.1110858790598402e-02 -8.0241068848080233e-03 2.5558251215475258e-01  2.2524784370669026e-02 -9.6038779810767739e-03 3.1353967090533513e-01  2.3689955381698043e-02 -1.1264853415842659e-02 3.7485805627401786e-01  2.4623749490647679e-02 -1.2991174652530560e-02 4.3890161119884530e-01  2.5346117529394040e-02 -1.4768380068639463e-02 5.0508423470257091e-01  2.5879549269392177e-02 -1.6583612190235998e-02 5.7287655592987174e-01  2.6249026212345362e-02 -1.8425808763695154e-02 6.4181258717595213e-01  2.6481971704289745e-02 -2.0285885785010623e-02 7.1149623700630904e-01  2.6608211080853733e-02 -2.2156916125819229e-02 7.8160768999815855e-01  2.6659926932260092e-02 -2.4034345588137551e-02 8.5190969020782492e-01  2.6672180115230003e-02 -2.5916584779602143e-02 9.2225432973892041e-01  0.0000000000000000e+00 0.0000000000000000e+00 0.0000000000000000e+00  3.2482195317211772e-03 -7.7996189237229620e-04 4.4753021072027523e-03  6.6874810149306942e-03 -1.3726328045792001e-03 1.8111338672781200e-02  9.8898166106081709e-03 -2.1137479790500676e-03 4.0479666446923621e-02  1.2788623231658658e-02 -3.0170070630244554e-03 7.0738646327595189e-02  1.5383433036489419e-02 -4.0821575390658912e-03 1.0807341366325278e-01  1.7679574184319206e-02 -5.2976079852246599e-03 1.5169075184447306e-01  1.9684487604861332e-02 -6.6471847327195487e-03 2.0081913189321035e-01  2.1407954897186002e-02 -8.1132734382628694e-03 2.5471186225324949e-01  2.2862280737137832e-02 -9.6783051086259068e-03 3.1265239372578868e-01  2.4062374998543364e-02 -1.1325456700099294e-02 3.7396060781099910e-01  2.5025780506723973e-02 -1.3039033108442479e-02 4.3799950040246821e-01  2.5772663933213289e-02 -1.4804726145549457e-02 5.0418197433465428e-01  2.6325781886633877e-02 -1.6609826170427767e-02 5.7197759550627980e-01  2.6710433472789407e-02 -1.8443414913650584e-02 6.4091924065891970e-01  2.6954410347634846e-02 -2.0296550077013576e-02 7.1060960931504213e-01  2.7087959310388581e-02 -2.2162449656589221e-02 7.8072760280547704e-01  2.7143820662608550e-02 -2.4036676861758151e-02 8.5103456511961462e-01  2.7157396292896978e-02 -2.5918257186637702e-02 9.2138139008902931e-01  0.0000000000000000e+00 0.0000000000000000e+00 0.0000000000000000e+00  1.5871265189872775e-03 4.7552678002664843e-05 4.9650057083726832e-03  3.0032924054558189e-03 -3.9088679460301149e-04 1.9438040457314957e-02  4.2834187171727342e-03 -1.0712710059247396e-03 4.2571213704529383e-02  5.4387673788563930e-03 -1.9663307722410811e-03 7.3511170359829667e-02  6.4720084504966925e-03 -3.0476736427327766e-03 1.1144984781162287e-01  7.3849695380320346e-03 -4.2915841786703591e-03 1.5559926267941890e-01  8.1805170094308294e-03 -5.6764862875154781e-03 2.0519124194479826e-01  8.8626753678223268e-03 -7.1820638520143183e-03 2.5948195431438414e-01  9.4365811416776239e-03 -8.7890447132425754e-03 3.1775789059617299e-01  9.9084584036617934e-03 -1.0479243549522656e-02 3.7934242157811832e-01  1.0285606158845896e-02 -1.2235698685015197e-02 4.4360258272653619e-01  1.0576383867372592e-02 -1.4042841972122239e-02 5.0995589925332219e-01  1.0790191961155899e-02 -1.5886679371161113e-02 5.7787714630298781e-01  1.0937449096550924e-02 -1.7754974183721215e-02 6.4690498942254171e-01  1.1029570260058984e-02 -1.9637430731600597e-02 7.1664848632925904e-01  1.1078956472676114e-02 -2.1525874627127649e-02 7.8679345965812197e-01  1.1099017200282064e-02 -2.3414396859852256e-02 8.5710884191397563e-01  1.1103907457495205e-02 -2.5299602490644925e-02 9.2745352742678866e-01  0.0000000000000000e+00 0.0000000000000000e+00 0.0000000000000000e+00  1.5710443246136588e-03 -5.8435665414162687e-05 5.0998625378575711e-03  3.0746637924566277e-03 -4.7621420427141232e-04 1.9542329783844153e-02  4.4175293655111560e-03 -1.1484564062016777e-03 4.2570744996702090e-02  5.6299676190126420e-03 -2.0355971484484086e-03 7.3394357439241345e-02  6.7143951536794829e-03 -3.1091158871841130e-03 1.1121972735389095e-01  7.6728843604816008e-03 -4.3453509587080769e-03 1.5526375654204658e-01  8.5085025140468062e-03 -5.7228121137314200e-03 2.0475998242658625e-01  9.2254536972894655e-03 -7.2212618981384140e-03 2.5896515206430609e-01  9.8290692150627100e-03 -8.8215015170176169e-03 3.1716586863304447e-01  1.0325803593745847e-02 -1.0505416667525164e-02 3.7868538641880500e-01  1.0723230583095461e-02 -1.2256115303312980e-02 4.4289048227811506e-01  1.1030031877247484e-02 -1.4058097551218158e-02 5.0919831293276741e-01  1.1255978591621481e-02 -1.5897436134336838e-02 5.7708318766670930e-01  1.1411908512723159e-02 -1.7761959502766239e-02 6.4608321401344804e-01  1.1509702776199244e-02 -1.9641435723218158e-02 7.1580680062167523e-01  1.1562269412644162e-02 -2.1527754262759227e-02 7.8593902366743840e-01  1.1583578843941287e-02 -2.3415069721191922e-02 8.5624792504169756e-01  1.1588848314945386e-02 -2.5299844688861543e-02 9.2659129082155622e-01  0.0000000000000000e+00 0.0000000000000000e+00 0.0000000000000000e+00  1.5992758119693156e-03 -1.2959129356018503e-04 5.1540963676676866e-03  3.1577839358953204e-03 -5.5316796368125819e-04 1.9537926002160064e-02  4.5600997304049342e-03 -1.2220889213291368e-03 4.2467842194192008e-02  5.8273986792523984e-03 -2.1029285248504938e-03 7.3184855969893520e-02  6.9614819323344903e-03 -3.1692991364236341e-03 1.1090721306699698e-01  7.9642760843251989e-03 -4.3982259587648032e-03 1.5485605302901281e-01  8.8389116112992140e-03 -5.7685009867391853e-03 2.0426642857967989e-01  9.5897296341074193e-03 -7.2600287740235249e-03 2.5839554546171384e-01  1.0222247432544478e-02 -8.8537051423007232e-03 3.1653001779056111e-01  1.0743153444901758e-02 -1.0531493505396309e-02 3.7799288738019415e-01  1.1160303966459683e-02 -1.2276572887683400e-02 4.4215057889684867e-01  1.1482712075911360e-02 -1.4073511252778009e-02 5.0841978882723982e-01  1.1720528953663196e-02 -1.5908447002332751e-02 5.7627427078959403e-01  1.1885020672558663e-02 -1.7769272294699295e-02 6.4525148681480926e-01  1.1988543161271233e-02 -1.9645816681973672e-02 7.1495911258402445e-01  1.2044518194404828e-02 -2.1530030548101608e-02 7.8508140240302071e-01  1.2067459662556984e-02 -2.3416139382946507e-02 8.5538547000511600e-01  1.2073309601772057e-02 -2.5300572389734884e-02 9.2572796970550031e-01  0.0000000000000000e+00 0.0000000000000000e+00 0.0000000000000000e+00  1.6402764325835672e-03 -1.8986760055150182e-04 5.1338561775987812e-03  3.2516651469525434e-03 -6.2593307014319048e-04 1.9428026285275457e-02  4.7117412227283178e-03 -1.2954002512808442e-03 4.2257010967897607e-02  6.0328634911414941e-03 -2.1715451812018196e-03 7.2874429525664017e-02  7.2155996416606609e-03 -3.2312328431716242e-03 1.1050364580460233e-01  8.2617091740156898e-03 -4.4529071482109816e-03 1.5436792226227908e-01  9.1744081940666883e-03 -5.8159065849667912e-03 2.0370307307419175e-01  9.9581887017904328e-03 -7.3003723668642363e-03 2.5776644199633975e-01  1.0618764942407793e-02 -8.8873297100293784e-03 3.1584447487547607e-01  1.1163069222735354e-02 -1.0558833537204385e-02 3.7725987137683570e-01  1.1599249860854380e-02 -1.2298140142767413e-02 4.4137859279547409e-01  1.1936660459406043e-02 -1.4089888746504147e-02 5.0761677199065636e-01  1.2185841092445793e-02 -1.5920285830473186e-02 5.7544750770704522e-01  1.2358494682792945e-02 -1.7777289206068449e-02 6.4440752049180894e-01  1.2467460927057118e-02 -1.9650791124340674e-02 7.1410366105751810e-01  1.2526685830358862e-02 -2.1532802471173701e-02 7.8421927793721879e-01  1.2551221669209033e-02 -2.3417625078852720e-02 8.5452049148148423e-01  1.2557613555590033e-02 -2.5301786421687046e-02 9.2486276301070114e-01  0.0000000000000000e+00 0.0000000000000000e+00 0.0000000000000000e+00  1.6791532585772519e-03 -2.5024265310301565e-04 5.0463315141999997e-03  3.3473601786685229e-03 -6.9953806141872870e-04 1.9217879443265574e-02  4.8661291836801261e-03 -1.3710544287464865e-03 4.1939401759040568e-02  6.2413219045057040e-03 -2.2431209566993386e-03 7.2462294380824688e-02  7.4725855441004690e-03 -3.2961975111982806e-03 1.1000752471020062e-01  8.5617704787678515e-03 -4.5104391341212096e-03 1.5379767316973186e-01  9.5122567141234498e-03 -5.8658869892530708e-03 2.0306825288150809e-01  1.0328714270495299e-02 -7.3429845368957183e-03 2.5707629088297324e-01  1.1017065961550561e-02 -8.9229138242702677e-03 3.1510783147474841e-01  1.1584494175700602e-02 -1.0587833722497723e-02 3.7648508079130888e-01  1.2039443324631671e-02 -1.2321084498550051e-02 4.4057341642009223e-01  1.2391610729188138e-02 -1.4107381153913499e-02 5.0678829980132734e-01  1.2651928164390527e-02 -1.5933001958789401e-02 5.7460207294766175e-01  1.2832538046736838e-02 -1.7785973797236631e-02 6.4355061680659553e-01  1.2946767270896520e-02 -1.9656254766918048e-02 7.1323986258387195e-01  1.3009094323637192e-02 -2.1535917643678491e-02 7.8335216436484711e-01  1.3035118867349640e-02 -2.3419344233591113e-02 8.5365257157148444e-01  1.3041951876553291e-02 -2.5303275305789311e-02 9.2399532643332727e-01  0.0000000000000000e+00 0.0000000000000000e+00 0.0000000000000000e+00  1.7099744007966482e-03 -3.1905918105587001e-04 4.8895600304711675e-03  3.4388130832885911e-03 -7.7888525637183847e-04 1.8907455954574964e-02  5.0182423681110642e-03 -1.4515356285212735e-03 4.1515601162783411e-02  6.4483300154281583e-03 -2.3190408013597369e-03 7.1948582883232123e-02  7.7285475116333690e-03 -3.3651097695617297e-03 1.0941863899599777e-01  8.8611156822525558e-03 -4.5715073057562552e-03 1.5314494673443388e-01  9.8496451178495242e-03 -5.9189793396763214e-03 2.0236156380828607e-01  1.0699000080830067e-02 -7.3882858526213230e-03 2.5632468939631442e-01  1.1415316298473711e-02 -8.9607758822676381e-03 3.1431970691349520e-01  1.2006026549440779e-02 -1.0618719078691273e-02 3.7566816671369063e-01  1.2479870001575742e-02 -1.2345544889230476e-02 4.3973473795740847e-01  1.2846885727341014e-02 -1.4126048605456833e-02 5.0593410107296277e-01  1.3118395036933064e-02 -1.5946584508604981e-02 5.7373773863331734e-01  1.3306977639092525e-02 -1.7795252757785051e-02 6.4268059319046422e-01  1.3426445983227397e-02 -1.9662081816684700e-02 7.1236758044396109e-01  1.3491816058154037e-02 -2.1539209695577481e-02 7.8247996664245656e-01  1.3519256918926505e-02 -2.3421098551562755e-02 8.5278164634867692e-01  1.3526431741791274e-02 -2.5304789098917216e-02 9.2312563364105815e-01  0.0000000000000000e+00 0.0000000000000000e+00 0.0000000000000000e+00  1.7282817373003659e-03 -4.0643186703515674e-04 4.6500081253567967e-03  3.5194406791563839e-03 -8.7059480957930424e-04 1.8489513260953851e-02  5.1610618860013485e-03 -1.5412070748152058e-03 4.0982615852236302e-02  6.6470368950785393e-03 -2.4024044983563275e-03 7.1331663051652575e-02  7.9771632393140536e-03 -3.4403667090992232e-03 1.0873583963508845e-01  9.1540886678394846e-03 -4.6380622977429320e-03 1.5240883838771557e-01  1.0181621662699024e-02 -5.9767949361712609e-03 2.0158227773795553e-01  1.1064795238392123e-02 -7.4375968720821195e-03 2.5551106231988285e-01  1.1809942386709141e-02 -9.0019736324183242e-03 3.1347966725707443e-01  1.2424734735576606e-02 -1.0652306250755207e-02 3.7480882770027063e-01  1.2918196146474192e-02 -1.2372117786735118e-02 4.3886237975726272e-01  1.3300698029382340e-02 -1.4146289578597517e-02 5.0505411249353227e-01  1.3583942207807610e-02 -1.5961258104867020e-02 5.7285454529055069e-01  1.3780936952348614e-02 -1.7805