<?xml version="1.0"?>
<VTKFile type="UnstructuredGrid"  version="0.1"  >
<UnstructuredGrid>
<Piece  NumberOfPoints="760" NumberOfCells="3024">
<Points>
<DataArray  type="Float64"  NumberOfComponents="3"  format="ascii">0 0 0  0.05555555555555555 0 0  0.1111111111111111 0 0  0.1666666666666667 0 0  0.2222222222222222 0 0  0.2777777777777778 0 0  0.3333333333333333 0 0  0.3888888888888889 0 0  0.4444444444444444 0 0  0.5 0 0  0.5555555555555556 0 0  0.6111111111111112 0 0  0.6666666666666666 0 0  0.7222222222222222 0 0  0.7777777777777778 0 0  0.8333333333333334 0 0  0.8888888888888888 0 0  0.9444444444444444 0 0  1 0 0  0 0.01428571428571429 0  0.05555555555555555 0.01428571428571429 0  0.1111111111111111 0.01428571428571429 0  0.1666666666666667 0.01428571428571429 0  0.2222222222222222 0.01428571428571429 0  0.2777777777777778 0.01428571428571429 0  0.3333333333333333 0.01428571428571429 0  0.3888888888888889 0.01428571428571429 0  0.4444444444444444 0.01428571428571429 0  0.5 0.01428571428571429 0  0.5555555555555556 0.01428571428571429 0  0.6111111111111112 0.01428571428571429 0  0.6666666666666666 0.01428571428571429 0  0.7222222222222222 0.01428571428571429 0  0.7777777777777778 0.01428571428571429 0  0.8333333333333334 0.01428571428571429 0  0.8888888888888888 0.01428571428571429 0  0.9444444444444444 0.01428571428571429 0  1 0.01428571428571429 0  0 0.02857142857142857 0  0.05555555555555555 0.02857142857142857 0  0.1111111111111111 0.02857142857142857 0  0.1666666666666667 0.02857142857142857 0  0.2222222222222222 0.02857142857142857 0  0.2777777777777778 0.02857142857142857 0  0.3333333333333333 0.02857142857142857 0  0.3888888888888889 0.02857142857142857 0  0.4444444444444444 0.02857142857142857 0  0.5 0.02857142857142857 0  0.5555555555555556 0.02857142857142857 0  0.6111111111111112 0.02857142857142857 0  0.6666666666666666 0.02857142857142857 0  0.7222222222222222 0.02857142857142857 0  0.7777777777777778 0.02857142857142857 0  0.8333333333333334 0.02857142857142857 0  0.8888888888888888 0.02857142857142857 0  0.9444444444444444 0.02857142857142857 0  1 0.02857142857142857 0  0 0.04285714285714286 0  0.05555555555555555 0.04285714285714286 0  0.1111111111111111 0.04285714285714286 0  0.1666666666666667 0.04285714285714286 0  0.2222222222222222 0.04285714285714286 0  0.2777777777777778 0.04285714285714286 0  0.3333333333333333 0.04285714285714286 0  0.3888888888888889 0.04285714285714286 0  0.4444444444444444 0.04285714285714286 0  0.5 0.04285714285714286 0  0.5555555555555556 0.04285714285714286 0  0.6111111111111112 0.04285714285714286 0  0.6666666666666666 0.04285714285714286 0  0.7222222222222222 0.04285714285714286 0  0.7777777777777778 0.04285714285714286 0  0.8333333333333334 0.04285714285714286 0  0.8888888888888888 0.04285714285714286 0  0.9444444444444444 0.04285714285714286 0  1 0.04285714285714286 0  0 0.05714285714285715 0  0.05555555555555555 0.05714285714285715 0  0.1111111111111111 0.05714285714285715 0  0.1666666666666667 0.05714285714285715 0  0.2222222222222222 0.05714285714285715 0  0.2777777777777778 0.05714285714285715 0  0.3333333333333333 0.05714285714285715 0  0.3888888888888889 0.05714285714285715 0  0.4444444444444444 0.05714285714285715 0  0.5 0.05714285714285715 0  0.5555555555555556 0.05714285714285715 0  0.6111111111111112 0.05714285714285715 0  0.6666666666666666 0.05714285714285715 0  0.7222222222222222 0.05714285714285715 0  0.7777777777777778 0.05714285714285715 0  0.8333333333333334 0.05714285714285715 0  0.8888888888888888 0.05714285714285715 0  0.9444444444444444 0.05714285714285715 0  1 0.05714285714285715 0  0 0.07142857142857142 0  0.05555555555555555 0.07142857142857142 0  0.1111111111111111 0.07142857142857142 0  0.1666666666666667 0.07142857142857142 0  0.2222222222222222 0.07142857142857142 0  0.2777777777777778 0.07142857142857142 0  0.3333333333333333 0.07142857142857142 0  0.3888888888888889 0.07142857142857142 0  0.4444444444444444 0.07142857142857142 0  0.5 0.07142857142857142 0  0.5555555555555556 0.07142857142857142 0  0.6111111111111112 0.07142857142857142 0  0.6666666666666666 0.07142857142857142 0  0.7222222222222222 0.07142857142857142 0  0.7777777777777778 0.07142857142857142 0  0.8333333333333334 0.07142857142857142 0  0.8888888888888888 0.07142857142857142 0  0.9444444444444444 0.07142857142857142 0  1 0.07142857142857142 0  0 0.08571428571428573 0  0.05555555555555555 0.08571428571428573 0  0.1111111111111111 0.08571428571428573 0  0.1666666666666667 0.08571428571428573 0  0.2222222222222222 0.08571428571428573 0  0.2777777777777778 0.08571428571428573 0  0.3333333333333333 0.08571428571428573 0  0.3888888888888889 0.08571428571428573 0  0.4444444444444444 0.08571428571428573 0  0.5 0.08571428571428573 0  0.5555555555555556 0.08571428571428573 0  0.6111111111111112 0.08571428571428573 0  0.6666666666666666 0.08571428571428573 0  0.7222222222222222 0.08571428571428573 0  0.7777777777777778 0.08571428571428573 0  0.8333333333333334 0.08571428571428573 0  0.8888888888888888 0.08571428571428573 0  0.9444444444444444 0.08571428571428573 0  1 0.08571428571428573 0  0 0.1 0  0.05555555555555555 0.1 0  0.1111111111111111 0.1 0  0.1666666666666667 0.1 0  0.2222222222222222 0.1 0  0.2777777777777778 0.1 0  0.3333333333333333 0.1 0  0.3888888888888889 0.1 0  0.4444444444444444 0.1 0  0.5 0.1 0  0.5555555555555556 0.1 0  0.6111111111111112 0.1 0  0.6666666666666666 0.1 0  0.7222222222222222 0.1 0  0.7777777777777778 0.1 0  0.8333333333333334 0.1 0  0.8888888888888888 0.1 0  0.9444444444444444 0.1 0  1 0.1 0  0 0 0.01  0.05555555555555555 0 0.01  0.1111111111111111 0 0.01  0.1666666666666667 0 0.01  0.2222222222222222 0 0.01  0.2777777777777778 0 0.01  0.3333333333333333 0 0.01  0.3888888888888889 0 0.01  0.4444444444444444 0 0.01  0.5 0 0.01  0.5555555555555556 0 0.01  0.6111111111111112 0 0.01  0.6666666666666666 0 0.01  0.7222222222222222 0 0.01  0.7777777777777778 0 0.01  0.8333333333333334 0 0.01  0.8888888888888888 0 0.01  0.9444444444444444 0 0.01  1 0 0.01  0 0.01428571428571429 0.01  0.05555555555555555 0.01428571428571429 0.01  0.1111111111111111 0.01428571428571429 0.01  0.1666666666666667 0.01428571428571429 0.01  0.2222222222222222 0.01428571428571429 0.01  0.2777777777777778 0.01428571428571429 0.01  0.3333333333333333 0.01428571428571429 0.01  0.3888888888888889 0.01428571428571429 0.01  0.4444444444444444 0.01428571428571429 0.01  0.5 0.01428571428571429 0.01  0.5555555555555556 0.01428571428571429 0.01  0.6111111111111112 0.01428571428571429 0.01  0.6666666666666666 0.01428571428571429 0.01  0.7222222222222222 0.01428571428571429 0.01  0.7777777777777778 0.01428571428571429 0.01  0.8333333333333334 0.01428571428571429 0.01  0.8888888888888888 0.01428571428571429 0.01  0.9444444444444444 0.01428571428571429 0.01  1 0.01428571428571429 0.01  0 0.02857142857142857 0.01  0.05555555555555555 0.02857142857142857 0.01  0.1111111111111111 0.02857142857142857 0.01  0.1666666666666667 0.02857142857142857 0.01  0.2222222222222222 0.02857142857142857 0.01  0.2777777777777778 0.02857142857142857 0.01  0.3333333333333333 0.02857142857142857 0.01  0.3888888888888889 0.02857142857142857 0.01  0.4444444444444444 0.02857142857142857 0.01  0.5 0.02857142857142857 0.01  0.5555555555555556 0.02857142857142857 0.01  0.6111111111111112 0.02857142857142857 0.01  0.6666666666666666 0.02857142857142857 0.01  0.7222222222222222 0.02857142857142857 0.01  0.7777777777777778 0.02857142857142857 0.01  0.8333333333333334 0.02857142857142857 0.01  0.8888888888888888 0.02857142857142857 0.01  0.9444444444444444 0.02857142857142857 0.01  1 0.02857142857142857 0.01  0 0.04285714285714286 0.01  0.05555555555555555 0.04285714285714286 0.01  0.1111111111111111 0.04285714285714286 0.01  0.1666666666666667 0.04285714285714286 0.01  0.2222222222222222 0.04285714285714286 0.01  0.2777777777777778 0.04285714285714286 0.01  0.3333333333333333 0.04285714285714286 0.01  0.3888888888888889 0.04285714285714286 0.01  0.4444444444444444 0.04285714285714286 0.01  0.5 0.04285714285714286 0.01  0.5555555555555556 0.04285714285714286 0.01  0.6111111111111112 0.04285714285714286 0.01  0.6666666666666666 0.04285714285714286 0.01  0.7222222222222222 0.04285714285714286 0.01  0.7777777777777778 0.04285714285714286 0.01  0.8333333333333334 0.04285714285714286 0.01  0.8888888888888888 0.04285714285714286 0.01  0.9444444444444444 0.04285714285714286 0.01  1 0.04285714285714286 0.01  0 0.05714285714285715 0.01  0.05555555555555555 0.05714285714285715 0.01  0.1111111111111111 0.05714285714285715 0.01  0.1666666666666667 0.05714285714285715 0.01  0.2222222222222222 0.05714285714285715 0.01  0.2777777777777778 0.05714285714285715 0.01  0.3333333333333333 0.05714285714285715 0.01  0.3888888888888889 0.05714285714285715 0.01  0.4444444444444444 0.05714285714285715 0.01  0.5 0.05714285714285715 0.01  0.5555555555555556 0.05714285714285715 0.01  0.6111111111111112 0.05714285714285715 0.01  0.6666666666666666 0.05714285714285715 0.01  0.7222222222222222 0.05714285714285715 0.01  0.7777777777777778 0.05714285714285715 0.01  0.8333333333333334 0.05714285714285715 0.01  0.8888888888888888 0.05714285714285715 0.01  0.9444444444444444 0.05714285714285715 0.01  1 0.05714285714285715 0.01  0 0.07142857142857142 0.01  0.05555555555555555 0.07142857142857142 0.01  0.1111111111111111 0.07142857142857142 0.01  0.1666666666666667 0.07142857142857142 0.01  0.2222222222222222 0.07142857142857142 0.01  0.2777777777777778 0.07142857142857142 0.01  0.3333333333333333 0.07142857142857142 0.01  0.3888888888888889 0.07142857142857142 0.01  0.4444444444444444 0.07142857142857142 0.01  0.5 0.07142857142857142 0.01  0.5555555555555556 0.07142857142857142 0.01  0.6111111111111112 0.07142857142857142 0.01  0.6666666666666666 0.07142857142857142 0.01  0.7222222222222222 0.07142857142857142 0.01  0.7777777777777778 0.07142857142857142 0.01  0.8333333333333334 0.07142857142857142 0.01  0.8888888888888888 0.07142857142857142 0.01  
[...]
<PointData  Vectors="f_33"> 
<DataArray  type="Float64"  Name="f_33"  NumberOfComponents="3" format="ascii">0.0000000000000000e+00 0.0000000000000000e+00 0.0000000000000000e+00  -2.1660797619377191e-03 -1.1526550102267254e-04 -3.1546697540684354e-03  -4.0396484353620423e-03 1.7109139556991589e-04 -1.2097375777456565e-02  -5.7482781293742629e-03 6.3263376717392970e-04 -2.6417770106252021e-02  -7.2949619593007916e-03 1.2289509681350243e-03 -4.5602646878538107e-02  -8.6823342254717748e-03 1.9375257781086210e-03 -6.9166094786441784e-02  -9.9125407475312444e-03 2.7424364375867151e-03 -9.6632634969184991e-02  -1.0988758761373268e-02 3.6301571337085128e-03 -1.2753650742518555e-01  -1.1915432086918590e-02 4.5882662583881474e-03 -1.6142394113755079e-01  -1.2698344994798598e-02 5.6050615439501060e-03 -1.9785647932103623e-01  -1.3344700440577508e-02 6.6694964928993407e-03 -2.3641486572290196e-01  -1.3863200724820439e-02 7.7712359432618051e-03 -2.7670331029359446e-01  -1.4264119887372704e-02 8.9007585324357551e-03 -3.1835403705598869e-01  -1.4559363680629359e-02 1.0049479238016643e-02 -3.6103204901445096e-01  -1.4762516463403954e-02 1.1209881918350954e-02 -4.0444005967453511e-01  -1.4888876712612810e-02 1.2375658778436549e-02 -4.4832354933500668e-01  -1.4955493478726042e-02 1.3541855862820527e-02 -4.9247591331782764e-01  -1.4981242438154511e-02 1.4705015500177299e-02 -5.3674372835289308e-01  -1.4986752035721392e-02 1.5863428073150210e-02 -5.8103270083494252e-01  0.0000000000000000e+00 0.0000000000000000e+00 0.0000000000000000e+00  -2.0752540877438143e-03 -8.7143571320344673e-06 -3.2480099211299749e-03  -4.0009791664499163e-03 2.6540677728722643e-04 -1.2163631537471502e-02  -5.7547512514061231e-03 7.1793684237487425e-04 -2.6418599797101150e-02  -7.3433732835882261e-03 1.3055612201047406e-03 -4.5531240559029636e-02  -8.7692415724699106e-03 2.0055956147823689e-03 -6.9024283933382460e-02  -1.0034513112212999e-02 2.8021383415516381e-03 -9.6425139151735853e-02  -1.1142391767714302e-02 3.6817259625044445e-03 -1.2726907690112027e-01  -1.2097345542086071e-02 4.6320080393349988e-03 -1.6110269697743337e-01  -1.2905190700760212e-02 5.6413581463908230e-03 -1.9748764707675043e-01  -1.3573179719345813e-02 6.6988101380658551e-03 -2.3600464809187099e-01  -1.4110087670999584e-02 7.7941132918926846e-03 -2.7625780859330107e-01  -1.4526288186714148e-02 8.9178340714624604e-03 -3.1787918836465301e-01  -1.4833816000566422e-02 1.0061477865801948e-02 -3.6053356674708487e-01  -1.5046415849881969e-02 1.1217620610118446e-02 -4.0392337293022851e-01  -1.5179578741744540e-02 1.2380047131255918e-02 -4.4779373817619827e-01  -1.5250573639082233e-02 1.3543895367876386e-02 -4.9193763439040039e-01  -1.5278531429704020e-02 1.4705787782471202e-02 -5.3620110647855335e-01  -1.5284772747993143e-02 1.5863825154061630e-02 -5.8048907032984620e-01  0.0000000000000000e+00 0.0000000000000000e+00 0.0000000000000000e+00  -2.0762553899346227e-03 7.2871326094948083e-05 -3.2854095177949601e-03  -4.0287614891290190e-03 3.5810382004924213e-04 -1.2165566720521378e-02  -5.8181188435167466e-03 8.0762034840400020e-04 -2.6357614688993839e-02  -7.4415772935848721e-03 1.3881890271493910e-03 -4.5403349853808367e-02  -8.8996982153289605e-03 2.0798671835886118e-03 -6.8831903732153907e-02  -1.0194198826525412e-02 2.8677394913119835e-03 -9.6173049068843705e-02  -1.1328185396513974e-02 3.7387241853118333e-03 -1.2696292047293886e-01  -1.2306137204694157e-02 4.6806534338767877e-03 -1.6074840194008452e-01  -1.3133932050823747e-02 5.6820192208676948e-03 -1.9709117973469362e-01  -1.3818919413865054e-02 6.7319541899383091e-03 -2.3557189040043416e-01  -1.4370002946139810e-02 7.8203018680492523e-03 -2.7579447931889534e-01  -1.4797715928437181e-02 8.9377233436521673e-03 -3.1739077868843185e-01  -1.5114284470613238e-02 1.0075820238345743e-02 -3.6002527929209227e-01  -1.5333677308537177e-02 1.1227265985791457e-02 -4.0340006015627022e-01  -1.5471642038374670e-02 1.2385942695743068e-02 -4.4725983825213306e-01  -1.5545731334428100e-02 1.3547083754287311e-02 -4.9139710170676437e-01  -1.5575372412253451e-02 1.4707405818711947e-02 -5.3565732537509003e-01  -1.5582240842803354e-02 1.5864967906235608e-02 -5.7994467153849172e-01  0.0000000000000000e+00 0.0000000000000000e+00 0.0000000000000000e+00  -2.0921438669221433e-03 1.4376470658906753e-04 -3.2757863902037956e-03  -4.0716098898302688e-03 4.4821012665242660e-04 -1.2100937689132073e-02  -5.8955041359778429e-03 8.9939883984945716e-04 -2.6229481139264415e-02  -7.5526173120460663e-03 1.4744876723464559e-03 -4.5212608172144023e-02  -9.0416598538511483e-03 2.1581549670043215e-03 -6.8582621661262957e-02  -1.0364014425824001e-02 2.9372298262016457e-03 -9.5870481455024220e-02  -1.1522746245181433e-02 3.7993110788048286e-03 -1.2661274982785795e-01  -1.2522373626100052e-02 4.7325276740839721e-03 -1.6035640452253930e-01  -1.3368854185200688e-02 5.7255346121379315e-03 -1.9666306180512227e-01  -1.4069649897822434e-02 6.7675822265645495e-03 -2.3511319242790238e-01  -1.4633807911240334e-02 7.8486176772383075e-03 -2.7531050513410199e-01  -1.5072036182524024e-02 8.9594025979567379e-03 -3.1688653247544940e-01  -1.5396767498850512e-02 1.0091639570081188e-02 -3.5950540398879283e-01  -1.5622210205445726e-02 1.1238103869302806e-02 -4.0286877506608804e-01  -1.5764384923726664e-02 1.2392778889424002e-02 -4.4672087531411508e-01  -1.5841146335579481e-02 1.3550996707255989e-02 -4.9085363986533787e-01  -1.5872226368999348e-02 1.4709575834613846e-02 -5.3511191452222640e-01  -1.5879610752083287e-02 1.5866678637574027e-02 -5.7939906493484072e-01  0.0000000000000000e+00 0.0000000000000000e+00 0.0000000000000000e+00  -2.1040897420221676e-03 2.1354716342278683e-04 -3.2228492768969514e-03  -4.1155383742078801e-03 5.3845372347655030e-04 -1.1972894436116474e-02  -5.9760029250605605e-03 9.9307297609143382e-04 -2.6034495985206640e-02  -7.6673381041701795e-03 1.5634853740188034e-03 -4.4958232259241511e-02  -9.1872983401500123e-03 2.2393105217527192e-03 -6.8275282209436142e-02  -1.0537295463750436e-02 3.0094711457198668e-03 -9.5516205315058764e-02  -1.1720484695845112e-02 3.8624177662967664e-03 -1.2621737899268565e-01  -1.2741470870695111e-02 4.7866496441893161e-03 -1.5992560979076795e-01  -1.3606310326958996e-02 5.7710157237988629e-03 -1.9620230533065214e-01  -1.4322586182113109e-02 6.8048977091022273e-03 -2.3462767688092478e-01  -1.4899493943334502e-02 7.8783533878358080e-03 -2.7480511778995476e-01  -1.5347919789964744e-02 8.9822494439147499e-03 -3.1636578621839179e-01  -1.5680506354633663e-02 1.0108393078928449e-02 -3.5897337602384111e-01  -1.5911704778352062e-02 1.1249664929072372e-02 -4.0232904397752134e-01  -1.6057812738132903e-02 1.2400153392324040e-02 -4.4617645744326967e-01  -1.6136995104755279e-02 1.3555292542480352e-02 -4.9030692643306989e-01  -1.6169301488916710e-02 1.4712008805256466e-02 -5.3456460212932266e-01  -1.6177055711851674e-02 1.5868683955907622e-02 -5.7885203333754198e-01  0.0000000000000000e+00 0.0000000000000000e+00 0.0000000000000000e+00  -2.1053035852250457e-03 2.9037522637639815e-04 -3.1246400759048459e-03  -4.1538836790647763e-03 6.3324796018374532e-04 -1.1781033107064368e-02  -6.0537786013729741e-03 1.0902505705904213e-03 -2.5772450247303343e-02  -7.7805527108753287e-03 1.6555739706537336e-03 -4.4639800570687449e-02  -9.3320346548737207e-03 2.3232800097213531e-03 -6.7909341330694539e-02  -1.0710058613472349e-02 3.0842483005349992e-03 -9.5109652719111287e-02  -1.1917994922309261e-02 3.9277700802180810e-03 -1.2577626680700255e-01  -1.2960576337012064e-02 4.8427234799013385e-03 -1.5945552522952183e-01  -1.3843971436246147e-02 5.8181587590085274e-03 -1.9570847479581865e-01  -1.4575887468321121e-02 6.8435940326115850e-03 -2.3411496770099829e-01  -1.5165667121544097e-02 7.9092015456348527e-03 -2.7427800048667206e-01  -1.5624372000256752e-02 9.0059564111352377e-03 -3.1582828079840608e-01  -1.5964851204394191e-02 1.0125773757260160e-02 -3.5842899144800594e-01  -1.6201795140862243e-02 1.1261643094801464e-02 -4.0178071468112447e-01  -1.6351775408454467e-02 1.2407762082137017e-02 -4.4562647922926268e-01  -1.6433269395431434e-02 1.3559671576433608e-02 -4.8975689461412758e-01  -1.6466662820747848e-02 1.4714412003479593e-02 -5.3401534869068679e-01  -1.6474658500020944e-02 1.5870671641352984e-02 -5.7830356676909989e-01  0.0000000000000000e+00 0.0000000000000000e+00 0.0000000000000000e+00  -2.0861521191604111e-03 3.8133323315020474e-04 -2.9717842369228393e-03  -4.1754343185844856e-03 7.3677529206898614e-04 -1.1520192810339730e-02  -6.1174916543698058e-03 1.1929519123321146e-03 -2.5440757146090752e-02  -7.8814576453537944e-03 1.7516395461919516e-03 -4.4255616770205501e-02  -9.4659741704206345e-03 2.4104458532918501e-03 -6.7483492615554780e-02  -1.0873453861750119e-02 3.1617201957828897e-03 -9.4649759585440654e-02  -1.2107505292314536e-02 3.9954164737012968e-03 -1.2528854264664185e-01  -1.3172986929567415e-02 4.9007316984241477e-03 -1.5894545309680627e-01  -1.4076170682352774e-02 5.8668981894279904e-03 -1.9518103275068510e-01  -1.4824875897374797e-02 6.8835655058875119e-03 -2.3357467667071469e-01  -1.5428578661326275e-02 7.9410206440771632e-03 -2.7372890249976833e-01  -1.5898501225193779e-02 9.0303494858530418e-03 -3.1527388974581944e-01  -1.6247683794479162e-02 1.0143578306118405e-02 -3.5787223295718379e-01  -1.6491040324952265e-02 1.1273809272972085e-02 -4.0122386184543141e-01  -1.6645400188211749e-02 1.2415354147927620e-02 -4.4507108731324690e-01  -1.6729540651210177e-02 1.3563867358796370e-02 -4.8920373778216764e-01  -1.6764198457520516e-02 1.4716504457118368e-02 -5.3346436353196458e-01  -1.6772446861682579e-02 1.5872326073416057e-02 -5.7775386468197798e-01  0.0000000000000000e+00 0.0000000000000000e+00 0.0000000000000000e+00  -2.0047471071346864e-03 4.8081731530551111e-04 -2.7597719815722378e-03  -4.1331260118512370e-03 8.4362931021531040e-04 -1.1190667153735213e-02  -6.1209049547126578e-03 1.2958962009345808e-03 -2.5042461247708408e-02  -7.9266554881546377e-03 1.8466142535843708e-03 -4.3809554169363732e-02  -9.5495487576175327e-03 2.4961110100232145e-03 -6.7001740831023213e-02  -1.0992096248858415e-02 3.2376574984259317e-03 -9.4140387442566476e-02  -1.2257889203387435e-02 4.0616335001433254e-03 -1.2475781850947178e-01  -1.3351781195983565e-02 4.9574604655410843e-03 -1.5839871416879678e-01  -1.4280065851334371e-02 5.9145153464362473e-03 -1.9462299239678871e-01  -1.5050609544027285e-02 6.9225635588583533e-03 -2.3300950367570311e-01  -1.5672961135227301e-02 7.9719995553292830e-03 -2.7316020988060352e-01  -1.6158443111736219e-02 9.0540158153551882e-03 -3.1470468811590352e-01  -1.6520225288945676e-02 1.0160746765164166e-02 -3.5730487023445645e-01  -1.6773382359832129e-02 1.1285404778037191e-02 -4.0065995804530469e-01  -1.6934937472484094e-02 1.2422414067519989e-02 -4.4451146796244878e-01  -1.7023898105591490e-02 1.3567546527502630e-02 -4.8864836746569318e-01  -1.7061324281141928e-02 1.4718057930945288e-02 -5.3291225376063889e-01  -1.7070467633010122e-02 1.5873440278144715e-02 -5.7720320218536514e-01  0.0000000000000000e+00 0.0000000000000000e+00 0.0000000000000000e+00  -9.8428891826238957e-04 -3.1960024999487173e-05 -3.0631376641326430e-03  -1.8650759074788491e-03 2.3375501212298007e-04 -1.2012795393173846e-02  -2.6639361287935791e-03 6.4667271125212603e-04 -2.6340098787309363e-02  -3.3876552706964685e-03 1.1905038406709743e-03 -4.5532155529308629e-02  -4.0376341195214258e-03 1.8482718350543703e-03 -6.9102840573825902e-02  -4.6146611818610574e-03 2.6058432603730149e-03 -9.6576569437052659e-02  -5.1200774706239328e-03 3.4503393460998655e-03 -1.2748749910788840e-01  -5.5558687522641540e-03 4.3695782960010941e-03 -1.6138178910906356e-01  -5.9246657559086794e-03 5.3519315526367531e-03 -1.9782091695040963e-01  -6.2297645700791320e-03 6.3863450755948774e-03 -2.3638555948743747e-01  -6.4751584150299869e-03 7.4624244601589132e-03 -2.7667985698994951e-01  -6.6655695835120699e-03 8.5705465752138610e-03 -3.1833596084651267e-01  -6.8064769961571339e-03 9.7019837500811959e-03 -3.6101879881412841e-01  -6.9041381156278890e-03 1.0849035052468184e-02 -4.0443100699273032e-01  -6.9656059367734112e-03 1.2005162574775788e-02 -4.4831798647558746e-01  -6.9987468021618518e-03 1.3165129446039462e-02 -4.9247305075555425e-01  -7.0122730423937624e-03 1.4325117223738221e-02 -5.3674268600234665e-01  -7.0155805250651619e-03 1.5482913265071349e-02 -5.8103224151444388e-01  0.0000000000000000e+00 0.0000000000000000e+00 0.0000000000000000e+00  -9.7331138836580114e-04 3.3879233807602096e-05 -3.1469624359977289e-03  -1.9073768038031828e-03 2.8696612104781364e-04 -1.2078050338386902e-02  -2.7443621529190439e-03 6.9498293802872134e-04 -2.6340748608908809e-02  -3.5028657145860188e-03 1.2340355121681810e-03 -4.5460812620073253e-02  -4.1841336370262317e-03 1.8870629463279428e-03 -6.8961141937399911e-02  -4.7890974624694395e-03 2.6399593246489543e-03 -9.6369173150786025e-02  -5.3192085745357104e-03 3.4798940349264401e-03 -1.2722013575575580e-01  -5.7765454904199539e-03 4.3947306691864210e-03 -1.6106057539592644e-01  -6.1638374336129972e-03 5.3728849658247800e-03 -1.9745208019081326e-01  -6.4844984452521190e-03 6.4033482255041853e-03 -2.3597530687667234e-01  -6.7426657999145314e-03 7.4757731543335700e-03 -2.7623429580316367e-01  -6.9432354079789170e-03 8.5805854850869619e-03 -3.1786103509619518e-01  -7.0918915082601782e-03 9.7091078706189968e-03 -3.6052022964322161e-01  -7.1951300808796876e-03 1.0853690764944616e-02 -4.0391423197272791e-01  -7.2602762823666478e-03 1.2007848405884730e-02 -4.4778809502487771e-01  -7.2954993785075868e-03 1.3166397277593877e-02 -4.9193471055807353e-01  -7.3098547605192033e-03 1.4325572570722719e-02 -5.3620003269941285e-01  -7.3134191845814680e-03 1.5483077108381309e-02 -5.8048871185240392e-01  0.0000000000000000e+00 0.0000000000000000e+00 0.0000000000000000e+00  -9.8989547485030444e-04 7.8102015334888909e-05 -3.1807533253257344e-03  -1.9571009585331008e-03 3.3492235925211067e-04 -1.2075746394995658e-02  -2.8301954104226214e-03 7.4101275515288823e-04 -2.6277524231437442e-02  -3.6221168567578542e-03 1.2762853228188405e-03 -4.5331452924762400e-02  -4.3337316360807397e-03 1.9249906226196684e-03 -6.8767649501110320e-02  -4.9658723765347397e-03 2.6734412263491806e-03 -9.6116179112915451e-02  -5.5200156579821380e-03 3.5089761813484831e-03 -1.2691322932641549e-01  -5.9983069536256413e-03 4.4195437290710151e-03 -1.6070566196004643e-01  -6.4035696279099285e-03 5.3936170229165305e-03 -1.9705511433626427e-01  -6.7393394464190237e-03 6.4202366727104058e-03 -2.3554216192525670e-01  -7.0099046642726204e-03 7.4891030585577728e-03 -2.7577068219749018e-01  -7.2203429361145186e-03 8.5906900346945023e-03 -3.1737243494719031e-01  -7.3765523309967714e-03 9.7163693085835102e-03 -3.6001183533107212e-01  -7.4852758227335467e-03 1.0858541116121613e-02 -4.0339088433866688e-01  -7.5541188325345034e-03 1.2010769593065627e-02 -4.4725421914987279e-01  -7.5915601650863428e-03 1.3167921749698228e-02 -4.9139424660416120e-01  -7.6069884804975604e-03 1.4326290133998356e-02 -5.3565635057868355e-01  -7.6109385528522746e-03 1.5483565055632250e-02 -5.7994445441296882e-01  0.0000000000000000e+00 0.0000000000000000e+00 0.0000000000000000e+00  -1.0144439249617186e-03 1.1553592403068100e-04 -3.1683309587882493e-03  -2.0135558009123648e-03 3.8022579515857406e-04 -1.2007864142902233e-02  -2.9217270149812184e-03 7.8678387427199518e-04 -2.6147024896741478e-02  -3.7464399364771188e-03 1.3192741634229334e-03 -4.5138966907102306e-02  -4.4877934429461280e-03 1.9639507876105301e-03 -6.8516977950579691e-02  -5.1465069411260143e-03 2.7079964968639669e-03 -9.5812453499810976e-02  -5.7240954649914163e-03 3.5390831248009714e-03 -1.2656208019591597e-01  -6.2227797325161045e-03 4.4453019688132653e-03 -1.6031284247295916e-01  -6.6454841212507188e-03 5.4152049869738992e-03 -1.9662631789883250e-01  -6.9958727174302170e-03 6.4378904868973019e-03 -2.3508291908180118e-01  -7.2783914172305985e-03 7.5031101928896560e-03 -2.7528628698177032e-01  -7.4983064073454305e-03 8.6013880181435506e-03 -3.1686788078417577e-01  -7.6617364749230728e-03 9.7241460291245269e-03 -3.5949175299675823e-01  -7.7756785470683865e-03 1.0863835263408655e-02 -4.0285947937547634e-01  -7.8480257211047955e-03 1.2014070289624168e-02 -4.4671520805382015e-01  -7.8875748651001439e-03 1.3169768053368393e-02 -4.9085079174219287e-01  -7.9040462478087940e-03 1.4327281588179943e-02 -5.3511098718805106e-01  -7.9083537122517835e-03 1.5484375438009500e-02 -5.7939893749948335e-01  0.0000000000000000e+00 0.0000000000000000e+00 0.0000000000000000e+00  -1.0376906873214196e-03 1.5297016475745954e-04 -3.1141483715196169e-03  -2.0711411725779600e-03 4.2598967248575929e-04 -1.1877654349023358e-02  -3.0149661961615536e-03 8.3395389758713647e-04 -2.5949967469756158e-02  -3.8726284313939569e-03 1.3640521609850787e-03 -4.4882874556466938e-02  -4.6436489196727843e-03 2.0047538170659932e-03 -6.8208201843404231e-02  -5.3287921775391107e-03 2.7442921772216108e-03 -9.5456950788037120e-02  -5.9296596979988197e-03 3.5707680779285453e-03 -1.2616565752668310e-01  -6.4485639365885871e-03 4.4724561892998246e-03 -1.5988115281004175e-01  -6.8885372191944561e-03 5.4380040638107533e-03 -1.9616481218126686e-01  -7.2533756225659132e-03 6.4565752777280376e-03 -2.3459679048240312e-01  -7.5476851160780727e-03 7.5179769840046694e-03 -2.7478041297472267e-01  -7.7769224089524278e-03 8.6127859612401339e-03 -3.1634676332543443e-01  -7.9474288652453019e-03 9.7324770081081025e-03 -3.5895945689600706e-01  -8.0664572360965130e-03 1.0869554231829804e-02 -4.0231956921376150e-01  -8.1421908095323566e-03 1.2017684791681232e-02 -4.4617068447288522e-01  -8.1837503643101238e-03 1.3171836604716224e-02 -4.9030402897641479e-01  -8.2011942975500161e-03 1.4328425678409404e-02 -5.3456366763535357e-01  -8.2057917140208360e-03 1.5485366796552843e-02 -5.7885193473374219e-01  0.0000000000000000e+00 0.0000000000000000e+00 0.0000000000000000e+00  -1.0559341843425004e-03 1.9555820513144848e-04 -3.0169993086074640e-03  -2.1260683541758905e-03 4.7524558822873542e-04 -1.1685104831215931e-02  -3.1067559876013767e-03 8.8406382981349009e-04 -2.5686719553914550e-02  -3.9978737887016386e-03 1.4114845928115786e-03 -4.4563262012078608e-02  -4.7988239485676305e-03 2.0479784046170710e-03 -6.7841194190394485e-02  -5.5105883505337100e-03 2.7827662770614418e-03 -9.5049451088150827e-02  -6.1348961214871692e-03 3.6043789681274776e-03 -1.2572371211590339e-01  -6.6741613656825663e-03 4.5012830011175739e-03 -1.5941034328269574e-01  -7.1315267715259430e-03 5.4622275430219530e-03 -1.9567035982707714e-01  -7.5109201825869828e-03 6.4764455077000399e-03 -2.3408355730048347e-01  -7.8171062811801528e-03 7.5338026651324197e-03 -2.7425286346173944e-01  -8.0557304589174584e-03 8.6249315465102179e-03 -3.1580891052029286e-01  -8.2333546347579702e-03 9.7413625266302359e-03 -3.5841480173197493e-01  -8.3574853176471269e-03 1.0875655748134606e-02 -4.0177103700121469e-01  -8.4365943086130019e-03 1.2021534266698651e-02 -4.4562056071319528e-01  -8.4801291096759917e-03 1.3174019626670594e-02 -4.8975389729340413e-01  -8.4985003744278975e-03 1.4329591629901915e-02 -5.3401435096206251e-01  -8.5033230440393660e-03 1.5486373226669884e-02 -5.7830343094826930e-01  0.0000000000000000e+00 0.0000000000000000e+00 0.0000000000000000e+00  -1.0663997581333018e-03 2.4954817317774188e-04 -2.8685215241265891e-03  -2.1742375522314883e-03 5.3209372144633331e-04 -1.1425736935662543e-02  -3.1927158352998055e-03 9.3982626762455451e-04 -2.5355422622394000e-02  -4.1178862345266536e-03 1.4635096596103800e-03 -4.4179107261873810e-02  -4.9493432558624130e-03 2.0951338303717097e-03 -6.7415227438504005e-02  -5.6883217396222477e-03 2.8246562857954598e-03 -9.4589374746485697e-02  -6.3366589129519061e-03 3.6409462809532432e-03 -1.2523577123541729e-01  -6.8968551824647390e-03 4.5326343110611541e-03 -1.5890003478596293e-01  -7.3721539852247475e-03 5.4885642992749811e-03 -1.9514266955398490e-01  -7.7666074891022648e-03 6.4980387210319566e-03 