<?xml version="1.0"?>
<VTKFile type="UnstructuredGrid"  version="0.1"  >
<UnstructuredGrid>
<Piece  NumberOfPoints="760" NumberOfCells="3024">
<Points>
<DataArray  type="Float64"  NumberOfComponents="3"  format="ascii">0 0 0  0.05555555555555555 0 0  0.1111111111111111 0 0  0.1666666666666667 0 0  0.2222222222222222 0 0  0.2777777777777778 0 0  0.3333333333333333 0 0  0.3888888888888889 0 0  0.4444444444444444 0 0  0.5 0 0  0.5555555555555556 0 0  0.6111111111111112 0 0  0.6666666666666666 0 0  0.7222222222222222 0 0  0.7777777777777778 0 0  0.8333333333333334 0 0  0.8888888888888888 0 0  0.9444444444444444 0 0  1 0 0  0 0.01428571428571429 0  0.05555555555555555 0.01428571428571429 0  0.1111111111111111 0.01428571428571429 0  0.1666666666666667 0.01428571428571429 0  0.2222222222222222 0.01428571428571429 0  0.2777777777777778 0.01428571428571429 0  0.3333333333333333 0.01428571428571429 0  0.3888888888888889 0.01428571428571429 0  0.4444444444444444 0.01428571428571429 0  0.5 0.01428571428571429 0  0.5555555555555556 0.01428571428571429 0  0.6111111111111112 0.01428571428571429 0  0.6666666666666666 0.01428571428571429 0  0.7222222222222222 0.01428571428571429 0  0.7777777777777778 0.01428571428571429 0  0.8333333333333334 0.01428571428571429 0  0.8888888888888888 0.01428571428571429 0  0.9444444444444444 0.01428571428571429 0  1 0.01428571428571429 0  0 0.02857142857142857 0  0.05555555555555555 0.02857142857142857 0  0.1111111111111111 0.02857142857142857 0  0.1666666666666667 0.02857142857142857 0  0.2222222222222222 0.02857142857142857 0  0.2777777777777778 0.02857142857142857 0  0.3333333333333333 0.02857142857142857 0  0.3888888888888889 0.02857142857142857 0  0.4444444444444444 0.02857142857142857 0  0.5 0.02857142857142857 0  0.5555555555555556 0.02857142857142857 0  0.6111111111111112 0.02857142857142857 0  0.6666666666666666 0.02857142857142857 0  0.7222222222222222 0.02857142857142857 0  0.7777777777777778 0.02857142857142857 0  0.8333333333333334 0.02857142857142857 0  0.8888888888888888 0.02857142857142857 0  0.9444444444444444 0.02857142857142857 0  1 0.02857142857142857 0  0 0.04285714285714286 0  0.05555555555555555 0.04285714285714286 0  0.1111111111111111 0.04285714285714286 0  0.1666666666666667 0.04285714285714286 0  0.2222222222222222 0.04285714285714286 0  0.2777777777777778 0.04285714285714286 0  0.3333333333333333 0.04285714285714286 0  0.3888888888888889 0.04285714285714286 0  0.4444444444444444 0.04285714285714286 0  0.5 0.04285714285714286 0  0.5555555555555556 0.04285714285714286 0  0.6111111111111112 0.04285714285714286 0  0.6666666666666666 0.04285714285714286 0  0.7222222222222222 0.04285714285714286 0  0.7777777777777778 0.04285714285714286 0  0.8333333333333334 0.04285714285714286 0  0.8888888888888888 0.04285714285714286 0  0.9444444444444444 0.04285714285714286 0  1 0.04285714285714286 0  0 0.05714285714285715 0  0.05555555555555555 0.05714285714285715 0  0.1111111111111111 0.05714285714285715 0  0.1666666666666667 0.05714285714285715 0  0.2222222222222222 0.05714285714285715 0  0.2777777777777778 0.05714285714285715 0  0.3333333333333333 0.05714285714285715 0  0.3888888888888889 0.05714285714285715 0  0.4444444444444444 0.05714285714285715 0  0.5 0.05714285714285715 0  0.5555555555555556 0.05714285714285715 0  0.6111111111111112 0.05714285714285715 0  0.6666666666666666 0.05714285714285715 0  0.7222222222222222 0.05714285714285715 0  0.7777777777777778 0.05714285714285715 0  0.8333333333333334 0.05714285714285715 0  0.8888888888888888 0.05714285714285715 0  0.9444444444444444 0.05714285714285715 0  1 0.05714285714285715 0  0 0.07142857142857142 0  0.05555555555555555 0.07142857142857142 0  0.1111111111111111 0.07142857142857142 0  0.1666666666666667 0.07142857142857142 0  0.2222222222222222 0.07142857142857142 0  0.2777777777777778 0.07142857142857142 0  0.3333333333333333 0.07142857142857142 0  0.3888888888888889 0.07142857142857142 0  0.4444444444444444 0.07142857142857142 0  0.5 0.07142857142857142 0  0.5555555555555556 0.07142857142857142 0  0.6111111111111112 0.07142857142857142 0  0.6666666666666666 0.07142857142857142 0  0.7222222222222222 0.07142857142857142 0  0.7777777777777778 0.07142857142857142 0  0.8333333333333334 0.07142857142857142 0  0.8888888888888888 0.07142857142857142 0  0.9444444444444444 0.07142857142857142 0  1 0.07142857142857142 0  0 0.08571428571428573 0  0.05555555555555555 0.08571428571428573 0  0.1111111111111111 0.08571428571428573 0  0.1666666666666667 0.08571428571428573 0  0.2222222222222222 0.08571428571428573 0  0.2777777777777778 0.08571428571428573 0  0.3333333333333333 0.08571428571428573 0  0.3888888888888889 0.08571428571428573 0  0.4444444444444444 0.08571428571428573 0  0.5 0.08571428571428573 0  0.5555555555555556 0.08571428571428573 0  0.6111111111111112 0.08571428571428573 0  0.6666666666666666 0.08571428571428573 0  0.7222222222222222 0.08571428571428573 0  0.7777777777777778 0.08571428571428573 0  0.8333333333333334 0.08571428571428573 0  0.8888888888888888 0.08571428571428573 0  0.9444444444444444 0.08571428571428573 0  1 0.08571428571428573 0  0 0.1 0  0.05555555555555555 0.1 0  0.1111111111111111 0.1 0  0.1666666666666667 0.1 0  0.2222222222222222 0.1 0  0.2777777777777778 0.1 0  0.3333333333333333 0.1 0  0.3888888888888889 0.1 0  0.4444444444444444 0.1 0  0.5 0.1 0  0.5555555555555556 0.1 0  0.6111111111111112 0.1 0  0.6666666666666666 0.1 0  0.7222222222222222 0.1 0  0.7777777777777778 0.1 0  0.8333333333333334 0.1 0  0.8888888888888888 0.1 0  0.9444444444444444 0.1 0  1 0.1 0  0 0 0.01  0.05555555555555555 0 0.01  0.1111111111111111 0 0.01  0.1666666666666667 0 0.01  0.2222222222222222 0 0.01  0.2777777777777778 0 0.01  0.3333333333333333 0 0.01  0.3888888888888889 0 0.01  0.4444444444444444 0 0.01  0.5 0 0.01  0.5555555555555556 0 0.01  0.6111111111111112 0 0.01  0.6666666666666666 0 0.01  0.7222222222222222 0 0.01  0.7777777777777778 0 0.01  0.8333333333333334 0 0.01  0.8888888888888888 0 0.01  0.9444444444444444 0 0.01  1 0 0.01  0 0.01428571428571429 0.01  0.05555555555555555 0.01428571428571429 0.01  0.1111111111111111 0.01428571428571429 0.01  0.1666666666666667 0.01428571428571429 0.01  0.2222222222222222 0.01428571428571429 0.01  0.2777777777777778 0.01428571428571429 0.01  0.3333333333333333 0.01428571428571429 0.01  0.3888888888888889 0.01428571428571429 0.01  0.4444444444444444 0.01428571428571429 0.01  0.5 0.01428571428571429 0.01  0.5555555555555556 0.01428571428571429 0.01  0.6111111111111112 0.01428571428571429 0.01  0.6666666666666666 0.01428571428571429 0.01  0.7222222222222222 0.01428571428571429 0.01  0.7777777777777778 0.01428571428571429 0.01  0.8333333333333334 0.01428571428571429 0.01  0.8888888888888888 0.01428571428571429 0.01  0.9444444444444444 0.01428571428571429 0.01  1 0.01428571428571429 0.01  0 0.02857142857142857 0.01  0.05555555555555555 0.02857142857142857 0.01  0.1111111111111111 0.02857142857142857 0.01  0.1666666666666667 0.02857142857142857 0.01  0.2222222222222222 0.02857142857142857 0.01  0.2777777777777778 0.02857142857142857 0.01  0.3333333333333333 0.02857142857142857 0.01  0.3888888888888889 0.02857142857142857 0.01  0.4444444444444444 0.02857142857142857 0.01  0.5 0.02857142857142857 0.01  0.5555555555555556 0.02857142857142857 0.01  0.6111111111111112 0.02857142857142857 0.01  0.6666666666666666 0.02857142857142857 0.01  0.7222222222222222 0.02857142857142857 0.01  0.7777777777777778 0.02857142857142857 0.01  0.8333333333333334 0.02857142857142857 0.01  0.8888888888888888 0.02857142857142857 0.01  0.9444444444444444 0.02857142857142857 0.01  1 0.02857142857142857 0.01  0 0.04285714285714286 0.01  0.05555555555555555 0.04285714285714286 0.01  0.1111111111111111 0.04285714285714286 0.01  0.1666666666666667 0.04285714285714286 0.01  0.2222222222222222 0.04285714285714286 0.01  0.2777777777777778 0.04285714285714286 0.01  0.3333333333333333 0.04285714285714286 0.01  0.3888888888888889 0.04285714285714286 0.01  0.4444444444444444 0.04285714285714286 0.01  0.5 0.04285714285714286 0.01  0.5555555555555556 0.04285714285714286 0.01  0.6111111111111112 0.04285714285714286 0.01  0.6666666666666666 0.04285714285714286 0.01  0.7222222222222222 0.04285714285714286 0.01  0.7777777777777778 0.04285714285714286 0.01  0.8333333333333334 0.04285714285714286 0.01  0.8888888888888888 0.04285714285714286 0.01  0.9444444444444444 0.04285714285714286 0.01  1 0.04285714285714286 0.01  0 0.05714285714285715 0.01  0.05555555555555555 0.05714285714285715 0.01  0.1111111111111111 0.05714285714285715 0.01  0.1666666666666667 0.05714285714285715 0.01  0.2222222222222222 0.05714285714285715 0.01  0.2777777777777778 0.05714285714285715 0.01  0.3333333333333333 0.05714285714285715 0.01  0.3888888888888889 0.05714285714285715 0.01  0.4444444444444444 0.05714285714285715 0.01  0.5 0.05714285714285715 0.01  0.5555555555555556 0.05714285714285715 0.01  0.6111111111111112 0.05714285714285715 0.01  0.6666666666666666 0.05714285714285715 0.01  0.7222222222222222 0.05714285714285715 0.01  0.7777777777777778 0.05714285714285715 0.01  0.8333333333333334 0.05714285714285715 0.01  0.8888888888888888 0.05714285714285715 0.01  0.9444444444444444 0.05714285714285715 0.01  1 0.05714285714285715 0.01  0 0.07142857142857142 0.01  0.05555555555555555 0.07142857142857142 0.01  0.1111111111111111 0.07142857142857142 0.01  0.1666666666666667 0.07142857142857142 0.01  0.2222222222222222 0.07142857142857142 0.01  0.2777777777777778 0.07142857142857142 0.01  0.3333333333333333 0.07142857142857142 0.01  0.3888888888888889 0.07142857142857142 0.01  0.4444444444444444 0.07142857142857142 0.01  0.5 0.07142857142857142 0.01  0.5555555555555556 0.07142857142857142 0.01  0.6111111111111112 0.07142857142857142 0.01  0.6666666666666666 0.07142857142857142 0.01  0.7222222222222222 0.07142857142857142 0.01  0.7777777777777778 0.07142857142857142 0.01  0.8333333333333334 0.07142857142857142 0.01  0.8888888888888888 0.07142857142857142 0.01  
[...]
<PointData  Vectors="f_33"> 
<DataArray  type="Float64"  Name="f_33"  NumberOfComponents="3" format="ascii">0.0000000000000000e+00 0.0000000000000000e+00 0.0000000000000000e+00  6.6173891235627445e-04 7.4298377149072136e-06 1.0208084815477650e-03  1.2320655380374556e-03 -1.5773248919902320e-04 3.9294457801454241e-03  1.7526719932485569e-03 -4.2355009428701989e-04 8.5929511460551122e-03  2.2251064446626211e-03 -7.7344496547108142e-04 1.4847635670061756e-02  2.6502082659791691e-03 -1.1962489631270363e-03 2.2538598168860929e-02  3.0284698651175429e-03 -1.6829455769371714e-03 3.1513922636589004e-02  3.3606320306736309e-03 -2.2253484753848893e-03 4.1624267894081836e-02  3.6477845055346565e-03 -2.8157021491330082e-03 5.2723472961415767e-02  3.8914036840240925e-03 -3.4465839041069772e-03 6.4669547956376694e-02  4.0933935934116495e-03 -4.1109157272389302e-03 7.7325897437892352e-02  4.2561299716132534e-03 -4.8020190541138890e-03 9.0562724357315730e-02  4.3825026448339440e-03 -5.5136883858332552e-03 1.0425858678472365e-01  4.4759534799041507e-03 -6.2402745609402913e-03 1.1830208599424837e-01  4.5405084872711067e-03 -6.9767738956608601e-03 1.3259366552256055e-01  4.5808036815636523e-03 -7.7189216652042850e-03 1.4704750042900452e-01  4.6021085158788697e-03 -8.4632889928077538e-03 1.6159345671843070e-01  4.6103598226944426e-03 -9.2073802414563630e-03 1.7617912076183767e-01  4.6121221024138783e-03 -9.9497902247193907e-03 1.9077208853632285e-01  0.0000000000000000e+00 0.0000000000000000e+00 0.0000000000000000e+00  6.4568328420491696e-04 -2.4398079173144917e-05 1.0518806800421437e-03  1.2439410355350948e-03 -1.8581975129956170e-04 3.9519729464448329e-03  1.7898145695407178e-03 -4.4897367547877521e-04 8.5942007707294037e-03  2.2855846078200875e-03 -7.9633204372748059e-04 1.4825328029355258e-02  2.7319370322884872e-03 -1.2166428806383253e-03 2.2493270758882290e-02  3.1293713928765526e-03 -1.7008875710493336e-03 3.1447054138550042e-02  3.4786560013554280e-03 -2.2408958828730357e-03 4.1537675865048938e-02  3.7809139872663580e-03 -2.8289323809087743e-03 5.2619102554684646e-02  4.0376642421591762e-03 -3.4575967490661835e-03 6.4549388513065423e-02  4.2508664059243070e-03 -4.1198357031278186e-03 7.7191943760952855e-02  4.4229676734607011e-03 -4.8089976951095903e-03 9.0416953157940474e-02  4.5569471692797807e-03 -5.5189063014343693e-03 1.0410293737776988e-01  4.6563555408584440e-03 -6.2439431639900889e-03 1.1813844115507262e-01  4.7253484713387518e-03 -6.9791367023274943e-03 1.3242383092157767e-01  4.7687134670587215e-03 -7.7202550812996004e-03 1.4687318168478733e-01  4.7918923642091809e-03 -8.4639027258190131e-03 1.6141623220034895e-01  4.8010211799484025e-03 -9.2076140267820673e-03 1.7600040204755929e-01  4.8030486872331375e-03 -9.9499126065555766e-03 1.9059302545708379e-01  0.0000000000000000e+00 0.0000000000000000e+00 0.0000000000000000e+00  6.5823090862802188e-04 -4.9067169918076323e-05 1.0652669526451405e-03  1.2766810142438886e-03 -2.1415770219562790e-04 3.9538078702463101e-03  1.8448010485614585e-03 -4.7657782983261875e-04 8.5755244513595428e-03  2.3616792860797577e-03 -8.2186532323180587e-04 1.4784760938114984e-02  2.8273291263079163e-03 -1.2396715034659145e-03 2.2431547584476415e-02  3.2421080172781182e-03 -1.7212953395414319e-03 3.1365681531614072e-02  3.6067703003217640e-03 -2.2586876000162933e-03 4.1438446269975102e-02  3.9224677614341534e-03 -2.8441695809588228e-03 5.2503908883010840e-02  4.1907713939259902e-03 -3.4703776126677839e-03 6.4420146954168769e-02  4.4137125484039483e-03 -4.1302896419767180e-03 7.7050555815216346e-02  4.5938293878812425e-03 -4.8172849135816034e-03 9.0265281247879289e-02  4.7342119098409598e-03 -5.5252189552158345e-03 1.0394278431554686e-01  4.8385424806243376e-03 -6.2485068499569252e-03 1.1797152982123718e-01  4.9111302863471444e-03 -6.9822117035554148e-03 1.3225178281491673e-01  4.9569386675456031e-03 -7.7221369552274962e-03 1.4669749374042795e-01  4.9816061387963810e-03 -8.4649223857031688e-03 1.6123825093204217e-01  4.9914814723718368e-03 -9.2081384061876697e-03 1.7582129081645528e-01  4.9937627078423079e-03 -9.9502877120845098e-03 1.9041369473787079e-01  0.0000000000000000e+00 0.0000000000000000e+00 0.0000000000000000e+00  6.7500200629338970e-04 -7.1232095398200554e-05 1.0634038337883930e-03  1.3139212386929142e-03 -2.4254048108346266e-04 3.9340185183604562e-03  1.9040333139487954e-03 -5.0567415431334976e-04 8.5349617316275665e-03  2.4416615010233850e-03 -8.4933219419004431e-04 1.4723657340405797e-02  2.9261985016640828e-03 -1.2646692271708767e-03 2.2351178715812766e-02  3.3578964920372243e-03 -1.7435550397543360e-03 3.1267716349793362e-02  3.7375142134898564e-03 -2.2781596399213135e-03 4.1324699662644383e-02  4.0662409659113930e-03 -2.8608986158801548e-03 5.2376235546249421e-02  4.3457057417933993e-03 -3.4844599637022656e-03 6.4280390101392151e-02  4.5780167487137020e-03 -4.1418596282931210e-03 7.6900517238001523e-02  4.7658082391743547e-03 -4.8265114007505616e-03 9.0106698699405019e-02  4.9122864013905780e-03 -5.5323054567698792e-03 1.0377731061206355e-01  5.0212708764465295e-03 -6.2536926924158815e-03 1.1780071155717284e-01  5.0972301366610422e-03 -6.9857732025900470e-03 1.3207703800550380e-01  5.1453095009377434e-03 -7.7243879072777886e-03 1.4652008827667615e-01  5.1713507637066378e-03 -8.4662136947142100e-03 1.6105927365697084e-01  5.1819161029611378e-03 -9.2088598734702942e-03 1.7564162356642449e-01  5.1844269197764536e-03 -9.9508617847599359e-03 1.9023394841167032e-01  0.0000000000000000e+00 0.0000000000000000e+00 0.0000000000000000e+00  6.9024753301660867e-04 -9.3947705330993671e-05 1.0474425506092251e-03  1.3513453153077488e-03 -2.7186387030880095e-04 3.8935840774745817e-03  1.9641693147044456e-03 -5.3619581777922861e-04 8.4725767528130314e-03  2.5227451260549992e-03 -8.7840898609599079e-04 1.4641731537710779e-02  3.0261740724567381e-03 -1.2912554753605758e-03 2.2251760717078076e-02  3.4747291992548606e-03 -1.7672900154497024e-03 3.1152733144928012e-02  3.8692161747686101e-03 -2.2989584010406766e-03 4.1196027474298853e-02  4.2108769090379349e-03 -2.8787948725272549e-03 5.2235705703800504e-02  4.5014043286366332e-03 -3.4995496859312881e-03 6.4129777965611257e-02  4.7429861649016924e-03 -4.1542818751542842e-03 7.6741526047933453e-02  4.9383542366602797e-03 -4.8364427739278747e-03 8.9940940969945218e-02  5.0908320098477337e-03 -5.5399594580155314e-03 1.0360628771132266e-01  5.2043774084503166e-03 -6.2593206723699632e-03 1.1762579175125004e-01  5.2836192461599039e-03 -6.9896655421359255e-03 1.3189943325476572e-01  5.3338861674920709e-03 -7.7268745923172143e-03 1.4634083021722102e-01  5.3612260061520374e-03 -8.4676635349669373e-03 1.6087918929920023e-01  5.3724182720307394e-03 -9.2096824812484164e-03 1.7546130738949275e-01  5.3751132063549565e-03 -9.9515452595975509e-03 1.9005371428917009e-01  0.0000000000000000e+00 0.0000000000000000e+00 0.0000000000000000e+00  7.0205258747316147e-04 -1.1984439199177097e-04 1.0167381405173210e-03  1.3870169295698578e-03 -3.0356678073182854e-04 3.8323478176385335e-03  2.0235023946808804e-03 -5.6867079768190682e-04 8.3882879054287107e-03  2.6034222283700843e-03 -9.0922453548348094e-04 1.4538834053341216e-02  3.1259351582116233e-03 -1.3194140659748192e-03 2.2133105310885914e-02  3.5914688866650899e-03 -1.7924319189997040e-03 3.1020536839053127e-02  4.0009166324322101e-03 -2.3209963669892485e-03 4.1052244184632505e-02  4.3555859142936559e-03 -2.8977635724583132e-03 5.2082150495680449e-02  4.6572376942993444e-03 -3.5155490175973851e-03 6.3968161090792841e-02  4.9081399362312294e-03 -4.1674571280151482e-03 7.6573453029890798e-02  5.1111213572032545e-03 -4.8469787724095175e-03 8.9767899056702558e-02  5.2696214834953526e-03 -5.5480798476529210e-03 1.0342962633306869e-01  5.3877351037608977e-03 -6.2652889129349004e-03 1.1744670002848955e-01  5.4702499005338879e-03 -6.9937862177273952e-03 1.3171891593872923e-01  5.5226764837134632e-03 -7.7294942815100826e-03 1.4615968298311408e-01  5.5512693898150008e-03 -8.4691701073858500e-03 1.6069797452567339e-01  5.5630336513371277e-03 -9.2105065961776283e-03 1.7528032894649603e-01  5.5658641376376628e-03 -9.9522318544813335e-03 1.8987299105811722e-01  0.0000000000000000e+00 0.0000000000000000e+00 0.0000000000000000e+00  7.0762275583753490e-04 -1.5124440048091029e-04 9.6822066188222296e-04  1.4175729159654454e-03 -3.3901761353635990e-04 3.7485794899227722e-03  2.0785798502905542e-03 -6.0376940914296212e-04 8.2812101129285595e-03  2.6803908201419404e-03 -9.4207897985068307e-04 1.4414373067736212e-02  3.2224571226455523e-03 -1.3492802591940128e-03 2.1994750146692423e-02  3.7054129848025064e-03 -1.8190423368311540e-03 3.0870747003035028e-02  4.1302466189462881e-03 -2.3442979260107932e-03 4.0893035731702880e-02  4.4983302494532992e-03 -2.9178061322467455e-03 5.1915315827080540e-02  4.8114898549994137e-03 -3.5324420246285637e-03 6.3795341508684669e-02  5.0720694987009202e-03 -4.1813545048539607e-03 7.6396152933828287e-02  5.2829899379296334e-03 -4.8580748611044009e-03 8.9587476699739224e-02  5.4478014201025642e-03 -5.5566094499607376e-03 1.0324727486084526e-01  5.5707299283206868e-03 -6.2715286518000022e-03 1.1726342430565315e-01  5.6567161107743012e-03 -6.9980561051765835e-03 1.3153550752206558e-01  5.7114464181865629e-03 -7.7321590248410638e-03 1.4597669446490241e-01  5.7413772093079024e-03 -8.4706393138790706e-03 1.6051569451177425e-01  5.7537471781400453e-03 -9.2112338595149706e-03 1.7509875994880134e-01  5.7567028695554665e-03 -9.9528103835012458e-03 1.8969184866548239e-01  0.0000000000000000e+00 0.0000000000000000e+00 0.0000000000000000e+00  6.9400564775535991e-04 -1.8635776056317313e-04 9.0034663842189998e-04  1.4282269251961622e-03 -3.7648236393915212e-04 3.6421710056351161e-03  2.1148032627264584e-03 -6.3980139738803357e-04 8.1521449218303638e-03  2.7399072588128051e-03 -9.7534483182119380e-04 1.4269441275414498e-02  3.3031792435590768e-03 -1.3793384800977408e-03 2.1837853183688964e-02  3.8053025941128401e-03 -1.8457496061621908e-03 3.0704497915186712e-02  4.2472785941314621e-03 -2.3676486617347390e-03 4.0719477811407750e-02  4.6305030621983370e-03 -2.9378677226171582e-03 5.1736204385752653e-02  4.9568413529793402e-03 -3.5493300331466493e-03 6.3612242285455756e-02  5.2286927189249587e-03 -4.1952246597012381e-03 7.6210465632542829e-02  5.4490497838511698e-03 -4.8691217138014551e-03 8.9400428306194851e-02  5.6215526910169773e-03 -5.5650674544408946e-03 1.0305990067808682e-01  5.7505367494030150e-03 -6.2776739282710235e-03 1.1707654394695156e-01  5.8410726603861400e-03 -7.0022082045012590e-03 1.3134969891155646e-01  5.8989989484837290e-03 -7.7346825528531163e-03 1.4579226724049510e-01  5.9309480570251625e-03 -8.4719463509112698e-03 1.6033266364224472e-01  5.9443809750215912e-03 -9.2117795094187830e-03 1.7491681157677577e-01  5.9476580052923705e-03 -9.9532030702703979e-03 1.8951038145627294e-01  0.0000000000000000e+00 0.0000000000000000e+00 0.0000000000000000e+00  2.7821281263135821e-04 -2.0238444392742021e-05 9.9304070977783822e-04  5.2466762360470491e-04 -1.7871170571285720e-04 3.9037625743058310e-03  7.4793791991457621e-04 -4.2873810591844010e-04 8.5693083035920485e-03  9.5070247465998199e-04 -7.6153720558186670e-04 1.4826108252808850e-02  1.1334500356402193e-03 -1.1677490510841229e-03 2.2519209356058383e-02  1.2963228967598373e-03 -1.6389396223059380e-03 3.1496667545466255e-02  1.4395834847281766e-03 -2.1671352271228207e-03 4.1609118405539797e-02  1.5636603877739507e-03 -2.7446630106642530e-03 5.2710381367068571e-02  1.6691535473244701e-03 -3.3641313058791387e-03 6.4658447564406085e-02  1.7568466825003148e-03 -4.0184687435412059e-03 7.7316701451554726e-02  1.8277248386892417e-03 -4.7009881460310723e-03 9.0555324132000736e-02  1.8829927356206063e-03 -5.4054625294668902e-03 1.0425284999227048e-01  1.9240917389533941e-03 -6.1262082245878095e-03 1.1829785492034338e-01  1.9527144462936972e-03 -6.8581728640993303e-03 1.3259075558996281e-01  1.9708166434324768e-03 -7.5970270552639489e-03 1.4704569896545255e-01  1.9806283851313950e-03 -8.3392580110623685e-03 1.6159252158621457e-01  1.9846683369239742e-03 -9.0822573814528518e-03 1.7617877700689072e-01  1.9856693389132059e-03 -9.8244540088608737e-03 1.9077193645922350e-01  0.0000000000000000e+00 0.0000000000000000e+00 0.0000000000000000e+00  2.8783406640483725e-04 -3.8644089673105019e-05 1.0207113700436237e-03  5.6251491036133662e-04 -1.9337693676260351e-04 3.9255634624955947e-03  8.0887135151645273e-04 -4.4205754220905862e-04 8.5701257287805338e-03  1.0327362677174851e-03 -7.7356902913609490e-04 1.4803484684317842e-02  1.2344735653859718e-03 -1.1785026385974352e-03 2.2473620247695992e-02  1.4142736031693560e-03 -1.6484266105227896e-03 3.1429570854466959e-02  1.5724514690374817e-03 -2.1753796970418559e-03 4.1522324036340860e-02  1.7094897811484335e-03 -2.7517012352041162e-03 5.2605831464034060e-02  1.8260516750927607e-03 -3.3700117377885486e-03 6.4538130136720176e-02  1.9229986752961417e-03 -4.0232527752265060e-03 7.7182610540309837e-02  2.0014113300020663e-03 -4.7047511707955297e-03 9.0409435835967347e-02  2.0626095172528777e-03 -5.4082950156994153e-03 1.0409710300013642e-01  2.1081708535620985e-03 -6.1282166711872730e-03 1.1813413130178807e-01  2.1399464134450766e-03 -6.8594805696945383e-03 1.3242086020639521e-01  2.1600733701428948e-03 -7.5977747274542312e-03 1.4687133655487553e-01  2.1709856649522268e-03 -8.3396046236832409e-03 1.6141526979836771e-01  2.1754345739810146e-03 -9.0823809513129825e-03 1.7600004594208071e-01  2.1765374310158203e-03 -9.8244981469480137e-03 1.9059290556522043e-01  0.0000000000000000e+00 0.0000000000000000e+00 0.0000000000000000e+00  3.0526331204323810e-04 -5.1204314283594002e-05 1.0322501273928651e-03  6.0232405865858667e-04 -2.0720888511143191e-04 3.9254272335928365e-03  8.7112589233351203e-04 -4.5546800345248911e-04 8.5501705369981258e-03  1.1156641331283379e-03 -7.8593891740107256e-04 1.4761941603790777e-02  1.3361012553234706e-03 -1.1896480802463644e-03 2.2411089437665000e-02  1.5325977685739470e-03 -1.6582988645406245e-03 3.1347509989765134e-02  1.7054942974800110e-03 -2.1839832416405145e-03 4.1422506810030360e-02  1.8553196130273631e-03 -2.7590661742411446e-03 5.2490142061090948e-02  1.9827991188150198e-03 -3.3761852843536260e-03 6.4408479046570932e-02  2.0888739042967501e-03 -4.0282970698587396e-03 7.7040894082294142e-02  2.1747228640786450e-03 -4.7087432509112168e-03 9.0257510823577691e-02  2.2417843132511361e-03 -5.4113274691785238e-03 1.0393676582528580e-01  2.2917755455837299e-03 -6.1303984196577543e-03 1.1796709744045421e-01  2.3267095270090229e-03 -6.8609375241097470e-03 1.3224874267177247e-01  2.3489080971536682e-03 -7.5986501708171367e-03 1.4669562265306521e-01  2.3610116648042343e-03 -8.3400598732995459e-03 1.6123729535079312e-01  2.3659983149409494e-03 -9.0825985947880807e-03 1.7582096282656698e-01  2.3672717476072623e-03 -9.8246501195108759e-03 1.9041362103413306e-01  0.0000000000000000e+00 0.0000000000000000e+00 0.0000000000000000e+00  3.2467635944945461e-04 -6.2505736429105562e-05 1.0287965217779019e-03  6.4397654327898158e-04 -2.2101885637613623e-04 3.9039797225548767e-03  9.3496542154519714e-04 -4.6956550179265568e-04 8.5082857950248576e-03  1.1999873850982918e-03 -7.9925057588199231e-04 1.4699769793701679e-02  1.4389385291916320e-03 -1.2017559409332737e-03 2.2329820275108287e-02  1.6519471443698485e-03 -1.6690727107788836e-03 3.1248771564692315e-02  1.8393839900081126e-03 -2.1934004664939536e-03 4.1308096040695789e-02  2.0018267530678827e-03 -2.7671493828303920e-03 5.2361904676239586e-02  2.1400654548238448e-03 -3.3829817382705451e-03 6.4268252184653582e-02  2.2551230747540831e-03 -4.0338723377937617e-03 7.6890473926015793e-02  2.3482792617385622e-03 -4.7131796881239134e-03 9.0098629027788674e-02  2.4210932737225538e-03 -5.4147243401493723e-03 1.0377106822334677e-01  2.4754246680692231e-03 -6.1328725015493335e-03 1.1779612258039729e-01  2.5134509464307571e-03 -6.8626236896570120e-03 1.3207389936390873e-01  2.5376814181032321e-03 -7.5997016016365439e-03 1.4651816636733761e-01  2.5509659160220287e-03 -8.3406481713903073e-03 1.6105830347715711e-01  2.5565063379829533e-03 -9.0829179412949233e-03 1.7564130598685337e-01  2.5579550448944920e-03 -9.8249164709568182e-03 1.9023390380398830e-01  0.0000000000000000e+00 0.0000000000000000e+00 0.0000000000000000e+00  3.4342663439572007e-04 -7.4700887832822085e-05 1.0117522234048399e-03  6.8583944879688284e-04 -2.3585180555321710e-04 3.8622324106219420e-03  9.9926588607776113e-04 -4.8490635637001787e-04 8.4446718881817286e-03  1.2848326051806717e-03 -8.1385738227844639e-04 1.4616783230361011e-02  1.5422778475796444e-03 -1.2151015524956509e-03 2.2229485137708241e-02  1.7717561969957756e-03 -1.6809770059093244e-03 3.1132991513680430e-02  1.9736840484264897e-03 -2.2038231498050418e-03 4.1178734709287824e-02  2.1486931566200673e-03 -2.7761090250388990e-03 5.2220786104752316e-02  2.2976403335988986e-03 -3.3905276054317264e-03 6.4117146153732749e-02  2.4216316159060363e-03 -4.0400751245516777e-03 7.6731078165349076e-02  2.5220481947750466e-03 -4.7181289275106441e-03 8.9932549914302773e-02  2.6005709334391731e-03 -5.4185281625566623e-03 1.0359980005197386e-01  2.6592022901646786e-03 -6.1356581411562651e-03 1.1762102546448486e-01  2.7002849539140938e-03 -6.8645380686802549e-03 1.3189617595788475e-01  2.7265165497019662e-03 -7.6009115126678267e-03 1.4633883779587931e-01  2.7409582672965017e-03 -8.3413397984668392e-03 1.6087818516842461e-01  2.7470374682439539e-03 -9.0833009236822027e-03 1.7546098145636430e-01  2.7486430757181586e-03 -9.8252534059172052e-03 1.9005367812886320e-01  0.0000000000000000e+00 0.0000000000000000e+00 0.0000000000000000e+00  3.6059273851105290e-04 -8.9451175978339737e-05 9.8071993144979567e-04  7.2689548996971495e-04 -2.5270377052742562e-04 3.8001661926968409e-03  1.0631765263429324e-03 -5.0200095608424439e-04 8.3594414280835638e-03  1.3694541394307998e-03 -8.3004633116127329e-04 1.4513004147146387e-02  1.6454751811823219e-03 -1.2298785057435263e-03 2.2110037773635061e-02  1.8914823426051165e-03 -1.6941598882347698e-03 3.1000093976146368e-02  2.1079508417573118e-03 -2.2153702584455657e-03 4.1034337852206830e-02  2.2955693295214461e-03 -2.7860407813197251e-03 5.2066701572039513e-02  2.4552619998545171e-03 -3.3988976644866034e-03 6.3955080499824499e-02  2.5882177265555487e-03 -4.0469605557134523e-03 7.6562632670278227e-02  2.6959186475999687e-03 -4.7236274108853286e-03 8.9759206846847975e-02  2.7801664678068628e-03 -5.4227577151316408e-03 1.0342290301585733e-01  2.8431057154846831e-03 -6.1387576664656022e-03 1.1744175684190346e-01  2.8872434127838590e-03 -6.8666680293020489e-03 1.3171553281785897e-01  2.9154647473240260e-03 -7.6022542599082548e-03 1.4615760715175061e-01  2.9310431639232859e-03 -8.3420987934007020e-03 1.6069691966407298e-01  2.9376380427532144e-03 -9.0837034849653355e-03 1.7527997562856731e-01  2.9393736892275616e-03 -9.8256048038844190e-03 1.8987294067544541e-01  0.0000000000000000e+00 0.0000000000000000e+00 0.0000000000000000e+00  3.7556132705080457e-04 -1.0881874867234786e-04 9.3297001440424449e-04  7.6604928778353299e-04 -2.7292239453852694e-04 3.7162948164745067e-03  1.1254668268697568e-03 -5.2174818090763733e-04 8.2519647798601804e-03  1.4526371333621845e-03 -8.4846329939044119e-04 1.4388077315538910e-02  1.7474087546927840e-03 -1.2465927335369095e-03 2.1971220164475811e-02  2.0101249149224822e-03 -1.7090385600201962e-03 3.0849870718137606e-02  2.2413129191468243e-03 -2.2283909707017284e-03 4.0874733893758161e-02  2.4417129929899784e-03 -2.7972346568166185e-03 5.1899512015592009e-02  2.6123134241625204e-03 -3.4083274307274325e-03 6.3781946963207312e-02  2.7543833385927415e-03 -4.0547131181476815e-03 7.6385058833616404e-02  2.8695033582457168e-03 -4.7298119922855068e-03 8.9578549679304217e-02  2.9595935243945689e-03 -5.4275060215576093e-03 1.0324035397359002e-01  3.0269378550532517e-03 -6.1422246864293057e-03 1.1725831874476023e-01  3.0742050559542460e-03 -6.86