<?xml version="1.0"?>
<VTKFile type="UnstructuredGrid"  version="0.1"  >
<UnstructuredGrid>
<Piece  NumberOfPoints="16884" NumberOfCells="79200">
<Points>
<DataArray  type="Float64"  NumberOfComponents="3"  format="ascii">0 0 0  0.1 0 0  0.2 0 0  0.3 0 0  0.4 0 0  0.5 0 0  0.6 0 0  0.7 0 0  0.8 0 0  0.9 0 0  1 0 0  1.1 0 0  1.2 0 0  1.3 0 0  1.4 0 0  1.5 0 0  1.6 0 0  1.7 0 0  1.8 0 0  1.9 0 0  2 0 0  2.1 0 0  2.2 0 0  2.3 0 0  2.4 0 0  2.5 0 0  2.6 0 0  2.7 0 0  2.8 0 0  2.9 0 0  3 0 0  3.1 0 0  3.2 0 0  3.3 0 0  3.4 0 0  3.5 0 0  3.6 0 0  3.7 0 0  3.8 0 0  3.9 0 0  4 0 0  4.1 0 0  4.2 0 0  4.3 0 0  4.4 0 0  4.5 0 0  4.6 0 0  4.7 0 0  4.8 0 0  4.9 0 0  5 0 0  5.1 0 0  5.2 0 0  5.3 0 0  5.4 0 0  5.5 0 0  5.6 0 0  5.7 0 0  5.8 0 0  5.9 0 0  6 0 0  6.1 0 0  6.2 0 0  6.3 0 0  6.4 0 0  6.5 0 0  6.6 0 0  6.7 0 0  6.8 0 0  6.9 0 0  7 0 0  7.1 0 0  7.2 0 0  7.3 0 0  7.4 0 0  7.5 0 0  7.6 0 0  7.7 0 0  7.8 0 0  7.9 0 0  8 0 0  8.1 0 0  8.199999999999999 0 0  8.300000000000001 0 0  8.4 0 0  8.5 0 0  8.6 0 0  8.699999999999999 0 0  8.800000000000001 0 0  8.9 0 0  9 0 0  9.1 0 0  9.199999999999999 0 0  9.300000000000001 0 0  9.4 0 0  9.5 0 0  9.6 0 0  9.699999999999999 0 0  9.800000000000001 0 0  9.9 0 0  10 0 0  10.1 0 0  10.2 0 0  10.3 0 0  10.4 0 0  10.5 0 0  10.6 0 0  10.7 0 0  10.8 0 0  10.9 0 0  11 0 0  11.1 0 0  11.2 0 0  11.3 0 0  11.4 0 0  11.5 0 0  11.6 0 0  11.7 0 0  11.8 0 0  11.9 0 0  12 0 0  12.1 0 0  12.2 0 0  12.3 0 0  12.4 0 0  12.5 0 0  12.6 0 0  12.7 0 0  12.8 0 0  12.9 0 0  13 0 0  13.1 0 0  13.2 0 0  13.3 0 0  13.4 0 0  13.5 0 0  13.6 0 0  13.7 0 0  13.8 0 0  13.9 0 0  14 0 0  14.1 0 0  14.2 0 0  14.3 0 0  14.4 0 0  14.5 0 0  14.6 0 0  14.7 0 0  14.8 0 0  14.9 0 0  15 0 0  15.1 0 0  15.2 0 0  15.3 0 0  15.4 0 0  15.5 0 0  15.6 0 0  15.7 0 0  15.8 0 0  15.9 0 0  16 0 0  16.1 0 0  16.2 0 0  16.3 0 0  16.4 0 0  16.5 0 0  16.6 0 0  16.7 0 0  16.8 0 0  16.9 0 0  17 0 0  17.1 0 0  17.2 0 0  17.3 0 0  17.4 0 0  17.5 0 0  17.6 0 0  17.7 0 0  17.8 0 0  17.9 0 0  18 0 0  18.1 0 0  18.2 0 0  18.3 0 0  18.4 0 0  18.5 0 0  18.6 0 0  18.7 0 0  18.8 0 0  18.9 0 0  19 0 0  19.1 0 0  19.2 0 0  19.3 0 0  19.4 0 0  19.5 0 0  19.6 0 0  19.7 0 0  19.8 0 0  19.9 0 0  20 0 0  0 0.08333333333333333 0  0.1 0.08333333333333333 0  0.2 0.08333333333333333 0  0.3 0.08333333333333333 0  0.4 0.08333333333333333 0  0.5 0.08333333333333333 0  0.6 0.08333333333333333 0  0.7 0.08333333333333333 0  0.8 0.08333333333333333 0  0.9 0.08333333333333333 0  1 0.08333333333333333 0  1.1 0.08333333333333333 0  1.2 0.08333333333333333 0  1.3 0.08333333333333333 0  1.4 0.08333333333333333 0  1.5 0.08333333333333333 0  1.6 0.08333333333333333 0  1.7 0.08333333333333333 0  1.8 0.08333333333333333 0  1.9 0.08333333333333333 0  2 0.08333333333333333 0  2.1 0.08333333333333333 0  2.2 0.08333333333333333 0  2.3 0.08333333333333333 0  2.4 0.08333333333333333 0  2.5 0.08333333333333333 0  2.6 0.08333333333333333 0  2.7 0.08333333333333333 0  2.8 0.08333333333333333 0  2.9 0.08333333333333333 0  3 0.08333333333333333 0  3.1 0.08333333333333333 0  3.2 0.08333333333333333 0  3.3 0.08333333333333333 0  3.4 0.08333333333333333 0  3.5 0.08333333333333333 0  3.6 0.08333333333333333 0  3.7 0.08333333333333333 0  3.8 0.08333333333333333 0  3.9 0.08333333333333333 0  4 0.08333333333333333 0  4.1 0.08333333333333333 0  4.2 0.08333333333333333 0  4.3 0.08333333333333333 0  4.4 0.08333333333333333 0  4.5 0.08333333333333333 0  4.6 0.08333333333333333 0  4.7 0.08333333333333333 0  4.8 0.08333333333333333 0  4.9 0.08333333333333333 0  5 0.08333333333333333 0  5.1 0.08333333333333333 0  5.2 0.08333333333333333 0  5.3 0.08333333333333333 0  5.4 0.08333333333333333 0  5.5 0.08333333333333333 0  5.6 0.08333333333333333 0  5.7 0.08333333333333333 0  5.8 0.08333333333333333 0  5.9 0.08333333333333333 0  6 0.08333333333333333 0  6.1 0.08333333333333333 0  6.2 0.08333333333333333 0  6.3 0.08333333333333333 0  6.4 0.08333333333333333 0  6.5 0.08333333333333333 0  6.6 0.08333333333333333 0  6.7 0.08333333333333333 0  6.8 0.08333333333333333 0  6.9 0.08333333333333333 0  7 0.08333333333333333 0  7.1 0.08333333333333333 0  7.2 0.08333333333333333 0  7.3 0.08333333333333333 0  7.4 0.08333333333333333 0  7.5 0.08333333333333333 0  7.6 0.08333333333333333 0  7.7 0.08333333333333333 0  7.8 0.08333333333333333 0  7.9 0.08333333333333333 0  8 0.08333333333333333 0  8.1 0.08333333333333333 0  8.199999999999999 0.08333333333333333 0  8.300000000000001 0.08333333333333333 0  8.4 0.08333333333333333 0  8.5 0.08333333333333333 0  8.6 0.08333333333333333 0  8.699999999999999 0.08333333333333333 0  8.800000000000001 0.08333333333333333 0  8.9 0.08333333333333333 0  9 0.08333333333333333 0  9.1 0.08333333333333333 0  9.199999999999999 0.08333333333333333 0  9.300000000000001 0.08333333333333333 0  9.4 0.08333333333333333 0  9.5 0.08333333333333333 0  9.6 0.08333333333333333 0  9.699999999999999 0.08333333333333333 0  9.800000000000001 0.08333333333333333 0  9.9 0.08333333333333333 0  10 0.08333333333333333 0  10.1 0.08333333333333333 0  10.2 0.08333333333333333 0  10.3 0.08333333333333333 0  10.4 0.08333333333333333 0  10.5 0.08333333333333333 0  10.6 0.08333333333333333 0  10.7 0.08333333333333333 0  10.8 0.08333333333333333 0  10.9 0.08333333333333333 0  11 0.08333333333333333 0  11.1 0.08333333333333333 0  11.2 0.08333333333333333 0  11.3 0.08333333333333333 0  11.4 0.08333333333333333 0  11.5 0.08333333333333333 0  11.6 0.08333333333333333 0  11.7 0.08333333333333333 0  11.8 0.08333333333333333 0  11.9 0.08333333333333333 0  12 0.08333333333333333 0  12.1 0.08333333333333333 0  12.2 0.08333333333333333 0  12.3 0.08333333333333333 0  12.4 0.08333333333333333 0  12.5 0.08333333333333333 0  12.6 0.08333333333333333 0  12.7 0.08333333333333333 0  12.8 0.08333333333333333 0  12.9 0.08333333333333333 0  13 0.08333333333333333 0  13.1 0.08333333333333333 0  13.2 0.08333333333333333 0  13.3 0.08333333333333333 0  13.4 0.08333333333333333 0  13.5 0.08333333333333333 0  13.6 0.08333333333333333 0  13.7 0.08333333333333333 0  13.8 0.08333333333333333 0  13.9 0.08333333333333333 0  14 0.08333333333333333 0  14.1 0.08333333333333333 0  14.2 0.08333333333333333 0  14.3 0.08333333333333333 0  14.4 0.08333333333333333 0  14.5 0.08333333333333333 0  14.6 0.08333333333333333 0  14.7 0.08333333333333333 0  14.8 0.08333333333333333 0  14.9 0.08333333333333333 0  15 0.08333333333333333 0  15.1 0.08333333333333333 0  15.2 0.08333333333333333 0  15.3 0.08333333333333333 0  15.4 0.08333333333333333 0  15.5 0.08333333333333333 0  15.6 0.08333333333333333 0  15.7 0.08333333333333333 0  15.8 0.08333333333333333 0  15.9 0.08333333333333333 0  16 0.08333333333333333 0  16.1 0.08333333333333333 0  16.2 0.08333333333333333 0  16.3 0.08333333333333333 0  16.4 0.08333333333333333 0  16.5 0.08333333333333333 0  16.6 0.08333333333333333 0  16.7 0.08333333333333333 0  16.8 0.08333333333333333 0  16.9 0.08333333333333333 0  17 0.08333333333333333 0  17.1 0.08333333333333333 0  17.2 0.08333333333333333 0  17.3 0.08333333333333333 0  17.4 0.08333333333333333 0  17.5 0.08333333333333333 0  17.6 0.08333333333333333 0  17.7 0.08333333333333333 0  17.8 0.08333333333333333 0  17.9 0.08333333333333333 0  18 0.08333333333333333 0  18.1 0.08333333333333333 0  18.2 0.08333333333333333 0  18.3 0.08333333333333333 0  18.4 0.08333333333333333 0  18.5 0.08333333333333333 0  18.6 0.08333333333333333 0  18.7 0.08333333333333333 0  18.8 0.08333333333333333 0  18.9 0.08333333333333333 0  19 0.08333333333333333 0  19.1 0.08333333333333333 0  19.2 0.08333333333333333 0  19.3 0.08333333333333333 0  19.4 0.08333333333333333 0  19.5 0.08333333333333333 0  19.6 0.08333333333333333 0  19.7 0.08333333333333333 0  19.8 0.08333333333333333 0  19.9 0.08333333333333333 0  20 0.08333333333333333 0  0 0.1666666666666667 0  0.1 0.1666666666666667 0  0.2 0.1666666666666667 0  0.3 0.1666666666666667 0  0.4 0.1666666666666667 0  0.5 0.1666666666666667 0  0.6 0.1666666666666667 0  0.7 0.1666666666666667 0  0.8 0.1666666666666667 0  0.9 0.1666666666666667 0  1 0.1666666666666667 0  1.1 0.1666666666666667 0  1.2 0.1666666666666667 0  1.3 0.1666666666666667 0  1.4 0.1666666666666667 0  1.5 0.1666666666666667 0  1.6 0.1666666666666667 0  1.7 0.1666666666666667 0  1.8 0.1666666666666667 0  1.9 0.1666666666666667 0  2 0.1666666666666667 0  2.1 0.1666666666666667 0  2.2 0.1666666666666667 0  2.3 0.1666666666666667 0  2.4 0.1666666666666667 0  2.5 0.1666666666666667 0  2.6 0.1666666666666667 0  2.7 0.1666666666666667 0  2.8 0.1666666666666667 0  2.9 0.1666666666666667 0  3 0.1666666666666667 0  3.1 0.1666666666666667 0  3.2 0.1666666666666667 0  3.3 0.1666666666666667 0  3.4 0.1666666666666667 0  3.5 0.1666666666666667 0  3.6 0.1666666666666667 0  3.7 0.1666666666666667 0  3.8 0.1666666666666667 0  3.9 0.1666666666666667 0  4 0.1666666666666667 0  4.1 0.1666666666666667 0  4.2 0.1666666666666667 0  4.3 0.1666666666666667 0  4.4 0.1666666666666667 0  4.5 0.1666666666666667 0  4.6 0.1666666666666667 0  4.7 0.1666666666666667 0  4.8 0.1666666666666667 0  4.9 0.1666666666666667 0  5 0.1666666666666667 0  5.1 0.1666666666666667 0  5.2 0.1666666666666667 0  5.3 0.1666666666666667 0  5.4 0.1666666666666667 0  5.5 0.1666666666666667 0  5.6 0.1666666666666667 0  5.7 0.1666666666666667 0  5.8 0.1666666666666667 0  5.9 0.1666666666666667 0  6 0.1666666666666667 0  6.1 0.1666666666666667 0  6.2 0.1666666666666667 0  6.3 0.1666666666666667 0  6.4 0.1666666666666667 0  6.5 0.1666666666666667 0  6.6 0.1666666666666667 0  6.7 0.1666666666666667 0  6.8 0.1666666666666667 0  6.9 0.1666666666666667 0  7 0.1666666666666667 0  7.1 0.1666666666666667 0  7.2 0.1666666666666667 0  7.3 0.1666666666666667 0  7.4 0.1666666666666667 0  7.5 0.1666666666666667 0  7.6 0.1666666666666667 0  7.7 0.1666666666666667 0  7.8 0.1666666666666667 0  7.9 0.1666666666666667 0  8 0.1666666666666667 0  8.1 0.1666666666666667 0  8.199999999999999 0.1666666666666667 0  8.300000000000001 0.1666666666666667 0  8.4 0.
[...]
<PointData  Scalars="f_34"> 
<DataArray  type="Float64"  Name="f_34"  format="ascii">0.0000000000000000e+00  0.0000000000000000e+00  0.0000000000000000e+00  0.0000000000000000e+00  0.0000000000000000e+00  0.0000000000000000e+00  0.0000000000000000e+00  0.0000000000000000e+00  0.0000000000000000e+00  0.0000000000000000e+00  0.0000000000000000e+00  0.0000000000000000e+00  0.0000000000000000e+00  0.0000000000000000e+00  0.0000000000000000e+00  0.0000000000000000e+00  0.0000000000000000e+00  0.0000000000000000e+00  0.0000000000000000e+00  0.0000000000000000e+00  0.0000000000000000e+00  0.0000000000000000e+00  0.0000000000000000e+00  0.0000000000000000e+00  0.0000000000000000e+00  0.0000000000000000e+00  0.0000000000000000e+00  0.0000000000000000e+00  0.0000000000000000e+00  0.0000000000000000e+00  0.0000000000000000e+00  0.0000000000000000e+00  0.0000000000000000e+00  0.0000000000000000e+00  0.0000000000000000e+00  0.0000000000000000e+00  0.0000000000000000e+00  0.0000000000000000e+00  0.0000000000000000e+00  0.0000000000000000e+00  0.0000000000000000e+00  0.0000000000000000e+00  0.0000000000000000e+00  0.0000000000000000e+00  0.0000000000000000e+00  0.0000000000000000e+00  0.0000000000000000e+00  0.0000000000000000e+00  0.0000000000000000e+00  0.0000000000000000e+00  0.0000000000000000e+00  0.0000000000000000e+00  0.0000000000000000e+00  0.0000000000000000e+00  0.0000000000000000e+00  0.0000000000000000e+00  0.0000000000000000e+00  0.0000000000000000e+00  0.0000000000000000e+00  0.0000000000000000e+00  0.0000000000000000e+00  0.0000000000000000e+00  0.0000000000000000e+00  0.0000000000000000e+00  0.0000000000000000e+00  0.0000000000000000e+00  0.0000000000000000e+00  0.0000000000000000e+00  0.0000000000000000e+00  0.0000000000000000e+00  0.0000000000000000e+00  0.0000000000000000e+00  0.0000000000000000e+00  0.0000000000000000e+00  0.0000000000000000e+00  0.0000000000000000e+00  0.0000000000000000e+00  0.0000000000000000e+00  0.0000000000000000e+00  0.0000000000000000e+00  0.0000000000000000e+00  0.0000000000000000e+00  0.0000000000000000e+00  0.0000000000000000e+00  0.0000000000000000e+00  0.0000000000000000e+00  0.0000000000000000e+00  0.0000000000000000e+00  0.0000000000000000e+00  0.0000000000000000e+00  0.0000000000000000e+00  0.0000000000000000e+00  0.0000000000000000e+00  0.0000000000000000e+00  0.0000000000000000e+00  0.0000000000000000e+00  0.0000000000000000e+00  0.0000000000000000e+00  0.0000000000000000e+00  0.0000000000000000e+00  0.0000000000000000e+00  0.0000000000000000e+00  0.0000000000000000e+00  0.0000000000000000e+00  0.0000000000000000e+00  0.0000000000000000e+00  0.0000000000000000e+00  0.0000000000000000e+00  0.0000000000000000e+00  0.0000000000000000e+00  0.0000000000000000e+00  0.0000000000000000e+00  0.0000000000000000e+00  0.0000000000000000e+00  0.0000000000000000e+00  0.0000000000000000e+00  0.0000000000000000e+00  0.0000000000000000e+00  0.0000000000000000e+00  0.0000000000000000e+00  0.0000000000000000e+00  0.0000000000000000e+00  0.0000000000000000e+00  0.0000000000000000e+00  0.0000000000000000e+00  0.0000000000000000e+00  0.0000000000000000e+00  0.0000000000000000e+00  0.0000000000000000e+00  0.0000000000000000e+00  0.0000000000000000e+00  0.0000000000000000e+00  0.0000000000000000e+00  0.0000000000000000e+00  0.0000000000000000e+00  0.0000000000000000e+00  0.0000000000000000e+00  0.0000000000000000e+00  0.0000000000000000e+00  0.0000000000000000e+00  0.0000000000000000e+00  0.0000000000000000e+00  0.0000000000000000e+00  0.0000000000000000e+00  0.0000000000000000e+00  0.0000000000000000e+00  0.0000000000000000e+00  0.0000000000000000e+00  0.0000000000000000e+00  0.0000000000000000e+00  0.0000000000000000e+00  0.0000000000000000e+00  0.0000000000000000e+00  0.0000000000000000e+00  0.0000000000000000e+00  0.0000000000000000e+00  0.0000000000000000e+00  0.0000000000000000e+00  0.0000000000000000e+00  0.0000000000000000e+00  0.0000000000000000e+00  0.0000000000000000e+00  0.0000000000000000e+00  0.0000000000000000e+00  0.0000000000000000e+00  0.0000000000000000e+00  0.0000000000000000e+00  0.0000000000000000e+00  0.0000000000000000e+00  0.0000000000000000e+00  0.0000000000000000e+00  0.0000000000000000e+00  0.0000000000000000e+00  0.0000000000000000e+00  0.0000000000000000e+00  0.0000000000000000e+00  0.0000000000000000e+00  0.0000000000000000e+00  0.0000000000000000e+00  0.0000000000000000e+00  0.0000000000000000e+00  0.0000000000000000e+00  0.0000000000000000e+00  0.0000000000000000e+00  0.0000000000000000e+00  0.0000000000000000e+00  0.0000000000000000e+00  0.0000000000000000e+00  0.0000000000000000e+00  0.0000000000000000e+00  0.0000000000000000e+00  0.0000000000000000e+00  0.0000000000000000e+00  0.0000000000000000e+00  0.0000000000000000e+00  0.0000000000000000e+00  0.0000000000000000e+00  0.0000000000000000e+00  0.0000000000000000e+00  0.0000000000000000e+00  0.0000000000000000e+00  0.0000000000000000e+00  0.0000000000000000e+00  0.0000000000000000e+00  0.0000000000000000e+00  0.0000000000000000e+00  0.0000000000000000e+00  0.0000000000000000e+00  0.0000000000000000e+00  0.0000000000000000e+00  0.0000000000000000e+00  0.0000000000000000e+00  0.0000000000000000e+00  0.0000000000000000e+00  0.0000000000000000e+00  0.0000000000000000e+00  0.0000000000000000e+00  0.0000000000000000e+00  0.0000000000000000e+00  0.0000000000000000e+00  0.0000000000000000e+00  0.0000000000000000e+00  0.0000000000000000e+00  0.0000000000000000e+00  0.0000000000000000e+00  0.0000000000000000e+00  0.0000000000000000e+00  0.0000000000000000e+00  0.0000000000000000e+00  0.0000000000000000e+00  0.0000000000000000e+00  0.0000000000000000e+00  0.0000000000000000e+00  0.0000000000000000e+00  0.0000000000000000e+00  0.0000000000000000e+00  0.0000000000000000e+00  0.0000000000000000e+00  0.0000000000000000e+00  0.0000000000000000e+00  0.0000000000000000e+00  0.0000000000000000e+00  0.0000000000000000e+00  0.0000000000000000e+00  0.0000000000000000e+00  0.0000000000000000e+00  0.0000000000000000e+00  0.0000000000000000e+00  0.0000000000000000e+00  0.0000000000000000e+00  0.0000000000000000e+00  0.0000000000000000e+00  0.0000000000000000e+00  0.0000000000000000e+00  0.0000000000000000e+00  0.0000000000000000e+00  0.0000000000000000e+00  0.0000000000000000e+00  0.0000000000000000e+00  0.0000000000000000e+00  0.0000000000000000e+00  0.0000000000000000e+00  0.0000000000000000e+00  0.0000000000000000e+00  0.0000000000000000e+00  0.0000000000000000e+00  0.0000000000000000e+00  0.0000000000000000e+00  0.0000000000000000e+00  0.0000000000000000e+00  0.0000000000000000e+00  0.0000000000000000e+00  0.0000000000000000e+00  0.0000000000000000e+00  0.0000000000000000e+00  0.0000000000000000e+00  0.0000000000000000e+00  0.0000000000000000e+00  0.0000000000000000e+00  0.0000000000000000e+00  0.0000000000000000e+00  0.0000000000000000e+00  0.0000000000000000e+00  0.0000000000000000e+00  0.0000000000000000e+00  0.0000000000000000e+00  0.0000000000000000e+00  0.0000000000000000e+00  0.0000000000000000e+00  0.0000000000000000e+00  0.0000000000000000e+00  0.0000000000000000e+00  0.0000000000000000e+00  0.0000000000000000e+00  0.0000000000000000e+00  0.0000000000000000e+00  0.0000000000000000e+00  0.0000000000000000e+00  0.0000000000000000e+00  0.0000000000000000e+00  0.0000000000000000e+00  0.0000000000000000e+00  0.0000000000000000e+00  0.0000000000000000e+00  0.0000000000000000e+00  0.0000000000000000e+00  0.0000000000000000e+00  0.0000000000000000e+00  0.0000000000000000e+00  0.0000000000000000e+00  0.0000000000000000e+00  0.0000000000000000e+00  0.0000000000000000e+00  0.0000000000000000e+00  0.0000000000000000e+00  0.0000000000000000e+00  0.0000000000000000e+00  0.0000000000000000e+00  0.0000000000000000e+00  0.0000000000000000e+00  0.0000000000000000e+00  0.0000000000000000e+00  0.0000000000000000e+00  0.0000000000000000e+00  0.0000000000000000e+00  0.0000000000000000e+00  0.0000000000000000e+00  0.0000000000000000e+00  0.0000000000000000e+00  0.0000000000000000e+00  0.0000000000000000e+00  0.0000000000000000e+00  0.0000000000000000e+00  0.0000000000000000e+00  0.0000000000000000e+00  0.0000000000000000e+00  0.0000000000000000e+00  0.0000000000000000e+00  0.0000000000000000e+00  0.0000000000000000e+00  0.0000000000000000e+00  0.0000000000000000e+00  0.0000000000000000e+00  0.0000000000000000e+00  0.0000000000000000e+00  0.0000000000000000e+00  0.0000000000000000e+00  0.0000000000000000e+00  0.0000000000000000e+00  0.0000000000000000e+00  0.0000000000000000e+00  0.0000000000000000e+00  0.0000000000000000e+00  0.0000000000000000e+00  0.0000000000000000e+00  0.0000000000000000e+00  0.0000000000000000e+00  0.0000000000000000e+00  0.0000000000000000e+00  0.0000000000000000e+00  0.0000000000000000e+00  0.0000000000000000e+00  0.0000000000000000e+00  0.0000000000000000e+00  0.0000000000000000e+00  0.0000000000000000e+00  0.0000000000000000e+00  0.0000000000000000e+00  0.0000000000000000e+00  0.0000000000000000e+00  0.0000000000000000e+00  0.0000000000000000e+00  0.0000000000000000e+00  0.0000000000000000e+00  0.0000000000000000e+00  0.0000000000000000e+00  0.0000000000000000e+00  0.0000000000000000e+00  0.0000000000000000e+00  0.0000000000000000e+00  0.0000000000000000e+00  0.0000000000000000e+00  0.0000000000000000e+00  0.0000000000000000e+00  0.0000000000000000e+00  0.0000000000000000e+00  0.0000000000000000e+00  0.0000000000000000e+00  0.0000000000000000e+00  0.0000000000000000e+00  0.0000000000000000e+00  0.0000000000000000e+00  0.0000000000000000e+00  0.0000000000000000e+00  0.0000000000000000e+00  0.0000000000000000e+00  0.0000000000000000e+00  0.0000000000000000e+00  0.0000000000000000e+00  0.0000000000000000e+00  0.0000000000000000e+00  0.0000000000000000e+00  0.0000000000000000e+00  0.0000000000000000e+00  0.0000000000000000e+00  0.0000000000000000e+00  0.0000000000000000e+00  0.0000000000000000e+00  0.0000000000000000e+00  0.0000000000000000e+00  0.0000000000000000e+00  0.0000000000000000e+00  0.0000000000000000e+00  0.0000000000000000e+00  0.0000000000000000e+00  0.0000000000000000e+00  0.0000000000000000e+00  0.0000000000000000e+00  0.0000000000000000e+00  0.0000000000000000e+00  0.0000000000000000e+00  0.0000000000000000e+00  0.0000000000000000e+00  0.0000000000000000e+00  0.0000000000000000e+00  0.0000000000000000e+00  0.0000000000000000e+00  0.0000000000000000e+00  0.0000000000000000e+00  0.0000000000000000e+00  0.0000000000000000e+00  0.0000000000000000e+00  0.0000000000000000e+00  0.0000000000000000e+00  0.0000000000000000e+00  0.0000000000000000e+00  0.0000000000000000e+00  0.0000000000000000e+00  0.0000000000000000e+00  0.0000000000000000e+00  0.0000000000000000e+00  0.0000000000000000e+00  0.0000000000000000e+00  0.0000000000000000e+00  0.0000000000000000e+00  0.0000000000000000e+00  0.0000000000000000e+00  0.0000000000000000e+00  0.0000000000000000e+00  0.0000000000000000e+00  0.0000000000000000e+00  0.0000000000000000e+00  0.0000000000000000e+00  0.0000000000000000e+00  0.0000000000000000e+00  0.0000000000000000e+00  0.0000000000000000e+00  0.0000000000000000e+00  0.0000000000000000e+00  0.0000000000000000e+00  0.0000000000000000e+00  0.0000000000000000e+00  0.0000000000000000e+00  0.0000000000000000e+00  0.0000000000000000e+00  0.0000000000000000e+00  0.0000000000000000e+00  0.0000000000000000e+00  0.0000000000000000e+00  0.0000000000000000e+00  0.0000000000000000e+00  0.0000000000000000e+00  0.0000000000000000e+00  0.0000000000000000e+00  0.0000000000000000e+00  0.0000000000000000e+00  0.0000000000000000e+00  0.0000000000000000e+00  0.0000000000000000e+00  0.0000000000000000e+00  0.0000000000000000e+00  0.0000000000000000e+00  0.0000000000000000e+00  0.0000000000000000e+00  0.0000000000000000e+00  0.0000000000000000e+00  0.0000000000000000e+00  0.0000000000000000e+00  0.0000000000000000e+00  0.0000000000000000e+00  0.0000000000000000e+00  0.0000000000000000e+00  0.0000000000000000e+00  0.0000000000000000e+00  0.0000000000000000e+00  0.0000000000000000e+00  0.0000000000000000e+00  0.0000000000000000e+00  0.0000000000000000e+00  0.0000000000000000e+00  0.0000000000000000e+00  0.0000000000000000e+00  0.0000000000000000e+00  0.0000000000000000e+00  0.0000000000000000e+00  0.0000000000000000e+00  0.0000000000000000e+00  0.0000000000000000e+00  0.0000000000000000e+00  0.0000000000000000e+00  0.0000000000000000e+00  0.0000000000000000e+00  0.0000000000000000e+00  0.0000000000000000e+00  0.0000000000000000e+00  0.0000000000000000e+00  0.0000000000000000e+00  0.0000000000000000e+00  0.0000000000000000e+00  0.0000000000000000e+00  0.0000000000000000e+00  0.0000000000000000e+00  0.0000000000000000e+00  0.0000000000000000e+00  0.0000000000000000e+00  0.0000000000000000e+00  0.0000000000000000e+00  0.0000000000000000e+00  0.0000000000000000e+00  0.0000000000000000e+00  0.0000000000000000e+00  0.0000000000000000e+00  0.0000000000000000e+00  0.0000000000000000e+00  0.0000000000000000e+00  0.0000000000000000e+00  0.0000000000000000e+00  0.0000000000000000e+00  0.0000000000000000e+00  0.0000000000000000e+00  0.0000000000000000e+00  0.0000000000000000e+00  0.0000000000000000e+00  0.0000000000000000e+00  0.0000000000000000e+00  0.0000000000000000e+00  0.0000000000000000e+00  0.0000000000000000e+00  0.0000000000000000e+00  0.0000000000000000e+00  0.0000000000000000e+00  0.0000000000000000e+00  0.0000000000000000e+00  0.0000000000000000e+00  0.0000000000000000e+00  0.0000000000000000e+00  0.0000000000000000e+00  0.0000000000000000e+00  0.0000000000000000e+00  0.0000000000000000e+00  0.0000000000000000e+00  0.0000000000000000e+00  0.0000000000000000e+00  0.0000000000000000e+00  0.0000000000000000e+00  0.0000000000000000e+00  0.0000000000000000e+00  0.0000000000000000e+00  0.0000000000000000e+00  0.0000000000000000e+00  0.0000000000000000e+00  0.0000000000000000e+00  0.0000000000000000e+00  0.0000000000000000e+00  0.0000000000000000e+00  0.0000000000000000e+00  0.0000000000000000e+00  0.0000000000000000e+00  0.0000000000000000e+00  0.0000000000000000e+00  0.0000000000000000e+00  0.0000000000000000e+00  0.0000000000000000e+00  0.0000000000000000e+00  0.0000000000000000e+00  0.0000000000000000e+00  0.0000000000000000e+00  0.0000000000000000e+00  0.0000000000000000e+00  0.0000000000000000e+00  0.0000000000000000e+00  0.0000000000000000e+00  0.0000000000000000e+00  0.0000000000000000e+00  0.0000000000000000e+00  0.0000000000000000e+00  0.0000000000000000e+00  0.0000000000000000e+00  0.0000000000000000e+00  0.0000000000000000e+00  0.0000000000000000e+00  0.0000000000000000e+00  0.0000000000000000e+00  0.0000000000000000e+00  0.0000000000000000e+00  0.0000000000000000e+00  0.0000000000000000e+00  0.0000000000000000e+00  0.0000000000000000e+00  0.0000000000000000e+00  0.0000000000000000e+00  0.0000000000000000e+00  0.0000000000000000e+00  0.0000000000000000e+00  0.0000000000000000e+00  0.0000000000000000e+00  0.0000000000000000e+00  0.0000000000000000e+00  0.0000000000000000e+00  0.0000000000000000e+00  0.0000000000000000e+00  0.0000000000000000e+00  0.0000000000000000e+00  0.0000000000000000e+00  0.0000000000000000e+00  0.0000000000000000e+00  0.0000000000000000e+00  0.0000000000000000e+00  0.0000000000000000e+00  0.0000000000000000e+00  0.0000000000000000e+00  0.0000000000000000e+00  0.0000000000000000e+00  0.0000000000000000e+00  0.0000000000000000e+00  0.0000000000000000e+00  0.0000000000000000e+00  0.0000000000000000e+00  0.0000000000000000e+00  0.0000000000000000e+00  0.0000000000000000e+00  0.0000000000000000e+00  0.0000000000000000e+00  0.0000000000000000e+00  0.0000000000000000e+00  0.0000000000000000e+00  0.0000000000000000e+00  0.0000000000000000e+00  0.0000000000000000e+00  0.0000000000000000e+00  0.0000000000000000e+00  0.0000000000000000e+00  0.0000000000000000e+00  0.0000000000000000e+00  0.0000000000000000e+00  0.0000000000000000e+00  0.0000000000000000e+00  0.0000000000000000e+00  0.0000000000000000e+00  0.0000000000000000e+00  0.0000000000000000e+00  0.0000000000000000e+00  0.0000000000000000e+00  0.0000000000000000e+00  0.0000000000000000e+00  0.0000000000000000e+00  0.0000000000000000e+00  0.0000000000000000e+00  0.0000000000000000e+00  0.0000000000000000e+00  0.0000000000000000e+00  0.0000000000000000e+00  0.0000000000000000e+00  0.0000000000000000e+00  0.0000000000000000e+00  0.0000000000000000e+00  0.0000000000000000e+00  0.0000000000000000e+00  0.0000000000000000e+00  0.0000000000000000e+00  0.0000000000000000e+00  0.0000000000000000e+00  0.0000000000000000e+00  0.0000000000000000e+00  0.0000000000000000e+00  0.0000000000000000e+00  0.0000000000000000e+00  0.0000000000000000e+00  0.0000000000000000e+00  0.0000000000000000e+00  0.0000000000000000e+00  0.0000000000000000e+00  0.0000000000000000e+00  0.0000000000000000e+00  0.0000000000000000e+00  0.0000000000000000e+00  0.0000000000000000e+00  0.0000000000000000e+00  0.0000000000000000e+00  0.0000000000000000e+00  0.0000000000000000e+00  0.0000000000000000e+00  0.0000000000000000e+00  0.0000000000000000e+00  0.0000000000000000e+00  0.0000000000000000e+00  0.0000000000000000e+00  0.0000000000000000e+00  0.0000000000000000e+00  0.0000000000000000e+00  0.0000000000000000e+00  0.0000000000000000e+00  0.0000000000000000e+00  0.0000000000000000e+00  0.0000000000000000e+00  0.0000000000000000e+00  0.0000000000000000e+00  0.0000000000000000e+00  0.0000000000000000e+00  0.0000000000000000e+00  0.0000000000000000e+00  0.0000000000000000e+00  0.0000000000000000e+00  0.0000000000000000e+00  0.0000000000000000e+00  0.0000000000000000e+00  0.0000000000000000e+00  0.0000000000000000e+00  0.0000000000000000e+00  0.0000000000000000e+00  0.0000000000000000e+00  0.0000000000000000e+00  0.0000000000000000e+00  0.0000000000000000e+00  0.0000000000000000e+00  0.0000000000000000e+00  0.0000000000000000e+00  0.0000000000000000e+00  0.0000000000000000e+00  0.0000000000000000e+00  0.0000000000000000e+00  0.0000000000000000e+00  0.0000000000000000e+00  0.0000000000000000e+00  0.0000000000000000e+00  0.0000000000000000e+00  0.0000000000000000e+00  0.0000000000000000e+00  0.0000000000000000e+00  0.0000000000000000e+00  0.0000000000000000e+00  0.0000000000000000e+00  0.0000000000000000e+00  0.0000000000000000e+00  0.0000000000000000e+00  0.0000000000000000e+00  0.0000000000000000e+00  0.0000000000000000e+00  0.0000000000000000e+00  0.0000000000000000e+00  0.0000000000000000e+00  0.0000000000000000e+00  0.0000000000000000e+00  0.0000000000000000e+00  0.0000000000000000e+00  0.0000000000000000e+00  0.0000000000000000e+00  0.0000000000000000e+00  0.0000000000000000e+00  0.0000000000000000e+00  0.0000000000000000e+00  0.0000000000000000e+00  0.0000000000000000e+00  0.0000000000000000e+00  0.0000000000000000e+00  0.0000000000000000e+00  0.0000000000000000e+00  0.0000000000000000e+00  0.0000000000000000e+00  0.0000000000000000e+00  0.0000000000000000e+00  0.0000000000000000e+00  0.0000000000000000e+00  0.0000000000000000e+00  0.0000000000000000e+00  0.0000000000000000e+00  0.0000000000000000e+00  0.0000000000000000e+00  0.0000000000000000e+00  0.0000000000000000e+00  0.0000000000000000e+00  0.0000000000000000e+00  0.0000000000000000e+00  0.0000000000000000e+00  0.0000000000000000e+00  0.0000000000000000e+00  0.0000000000000000e+00  0.0000000000000000e+00  0.0000000000000000e+00  0.0000000000000000e+00  0.0000000000000000e+00  0.0000000000000000e+00  0.0000000000000000e+00  0.0000000000000000e+00  0.0000000000000000e+00  0.0000000000000000e+00  0.0000000000000000e+00  0.0000000000000000e+00  0.0000000000000000e+00  0.0000000000000000e+00  0.0000000000000000e+00  0.0000000000000000e+00  0.0000000000000000e+00  0.0000000000000000e+00  0.0000000000000000e+00  0.0000000000000000e+00  0.0000000000000000e+00  0.0000000000000000e+00  0.0000000000000000e+00  0.0000000000000000e+00  0.0000000000000000e+00  0.0000000000000000e+00  0.0000000000000000e+00  0.0000000000000000e+00  0.0000000000000000e+00  0.0000000000000000e+00  0.0000000000000000e+00  0.0000000000000000e+00  0.0000000000000000e+00  0.0000000000000000e