<?xml version="1.0"?>
<VTKFile type="UnstructuredGrid"  version="0.1"  >
<UnstructuredGrid>
<Piece  NumberOfPoints="760" NumberOfCells="3024">
<Points>
<DataArray  type="Float64"  NumberOfComponents="3"  format="ascii">0 0 0  0.05555555555555555 0 0  0.1111111111111111 0 0  0.1666666666666667 0 0  0.2222222222222222 0 0  0.2777777777777778 0 0  0.3333333333333333 0 0  0.3888888888888889 0 0  0.4444444444444444 0 0  0.5 0 0  0.5555555555555556 0 0  0.6111111111111112 0 0  0.6666666666666666 0 0  0.7222222222222222 0 0  0.7777777777777778 0 0  0.8333333333333334 0 0  0.8888888888888888 0 0  0.9444444444444444 0 0  1 0 0  0 0.01428571428571429 0  0.05555555555555555 0.01428571428571429 0  0.1111111111111111 0.01428571428571429 0  0.1666666666666667 0.01428571428571429 0  0.2222222222222222 0.01428571428571429 0  0.2777777777777778 0.01428571428571429 0  0.3333333333333333 0.01428571428571429 0  0.3888888888888889 0.01428571428571429 0  0.4444444444444444 0.01428571428571429 0  0.5 0.01428571428571429 0  0.5555555555555556 0.01428571428571429 0  0.6111111111111112 0.01428571428571429 0  0.6666666666666666 0.01428571428571429 0  0.7222222222222222 0.01428571428571429 0  0.7777777777777778 0.01428571428571429 0  0.8333333333333334 0.01428571428571429 0  0.8888888888888888 0.01428571428571429 0  0.9444444444444444 0.01428571428571429 0  1 0.01428571428571429 0  0 0.02857142857142857 0  0.05555555555555555 0.02857142857142857 0  0.1111111111111111 0.02857142857142857 0  0.1666666666666667 0.02857142857142857 0  0.2222222222222222 0.02857142857142857 0  0.2777777777777778 0.02857142857142857 0  0.3333333333333333 0.02857142857142857 0  0.3888888888888889 0.02857142857142857 0  0.4444444444444444 0.02857142857142857 0  0.5 0.02857142857142857 0  0.5555555555555556 0.02857142857142857 0  0.6111111111111112 0.02857142857142857 0  0.6666666666666666 0.02857142857142857 0  0.7222222222222222 0.02857142857142857 0  0.7777777777777778 0.02857142857142857 0  0.8333333333333334 0.02857142857142857 0  0.8888888888888888 0.02857142857142857 0  0.9444444444444444 0.02857142857142857 0  1 0.02857142857142857 0  0 0.04285714285714286 0  0.05555555555555555 0.04285714285714286 0  0.1111111111111111 0.04285714285714286 0  0.1666666666666667 0.04285714285714286 0  0.2222222222222222 0.04285714285714286 0  0.2777777777777778 0.04285714285714286 0  0.3333333333333333 0.04285714285714286 0  0.3888888888888889 0.04285714285714286 0  0.4444444444444444 0.04285714285714286 0  0.5 0.04285714285714286 0  0.5555555555555556 0.04285714285714286 0  0.6111111111111112 0.04285714285714286 0  0.6666666666666666 0.04285714285714286 0  0.7222222222222222 0.04285714285714286 0  0.7777777777777778 0.04285714285714286 0  0.8333333333333334 0.04285714285714286 0  0.8888888888888888 0.04285714285714286 0  0.9444444444444444 0.04285714285714286 0  1 0.04285714285714286 0  0 0.05714285714285715 0  0.05555555555555555 0.05714285714285715 0  0.1111111111111111 0.05714285714285715 0  0.1666666666666667 0.05714285714285715 0  0.2222222222222222 0.05714285714285715 0  0.2777777777777778 0.05714285714285715 0  0.3333333333333333 0.05714285714285715 0  0.3888888888888889 0.05714285714285715 0  0.4444444444444444 0.05714285714285715 0  0.5 0.05714285714285715 0  0.5555555555555556 0.05714285714285715 0  0.6111111111111112 0.05714285714285715 0  0.6666666666666666 0.05714285714285715 0  0.7222222222222222 0.05714285714285715 0  0.7777777777777778 0.05714285714285715 0  0.8333333333333334 0.05714285714285715 0  0.8888888888888888 0.05714285714285715 0  0.9444444444444444 0.05714285714285715 0  1 0.05714285714285715 0  0 0.07142857142857142 0  0.05555555555555555 0.07142857142857142 0  0.1111111111111111 0.07142857142857142 0  0.1666666666666667 0.07142857142857142 0  0.2222222222222222 0.07142857142857142 0  0.2777777777777778 0.07142857142857142 0  0.3333333333333333 0.07142857142857142 0  0.3888888888888889 0.07142857142857142 0  0.4444444444444444 0.07142857142857142 0  0.5 0.07142857142857142 0  0.5555555555555556 0.07142857142857142 0  0.6111111111111112 0.07142857142857142 0  0.6666666666666666 0.07142857142857142 0  0.7222222222222222 0.07142857142857142 0  0.7777777777777778 0.07142857142857142 0  0.8333333333333334 0.07142857142857142 0  0.8888888888888888 0.07142857142857142 0  0.9444444444444444 0.07142857142857142 0  1 0.07142857142857142 0  0 0.08571428571428573 0  0.05555555555555555 0.08571428571428573 0  0.1111111111111111 0.08571428571428573 0  0.1666666666666667 0.08571428571428573 0  0.2222222222222222 0.08571428571428573 0  0.2777777777777778 0.08571428571428573 0  0.3333333333333333 0.08571428571428573 0  0.3888888888888889 0.08571428571428573 0  0.4444444444444444 0.08571428571428573 0  0.5 0.08571428571428573 0  0.5555555555555556 0.08571428571428573 0  0.6111111111111112 0.08571428571428573 0  0.6666666666666666 0.08571428571428573 0  0.7222222222222222 0.08571428571428573 0  0.7777777777777778 0.08571428571428573 0  0.8333333333333334 0.08571428571428573 0  0.8888888888888888 0.08571428571428573 0  0.9444444444444444 0.08571428571428573 0  1 0.08571428571428573 0  0 0.1 0  0.05555555555555555 0.1 0  0.1111111111111111 0.1 0  0.1666666666666667 0.1 0  0.2222222222222222 0.1 0  0.2777777777777778 0.1 0  0.3333333333333333 0.1 0  0.3888888888888889 0.1 0  0.4444444444444444 0.1 0  0.5 0.1 0  0.5555555555555556 0.1 0  0.6111111111111112 0.1 0  0.6666666666666666 0.1 0  0.7222222222222222 0.1 0  0.7777777777777778 0.1 0  0.8333333333333334 0.1 0  0.8888888888888888 0.1 0  0.9444444444444444 0.1 0  1 0.1 0  0 0 0.01  0.05555555555555555 0 0.01  0.1111111111111111 0 0.01  0.1666666666666667 0 0.01  0.2222222222222222 0 0.01  0.2777777777777778 0 0.01  0.3333333333333333 0 0.01  0.3888888888888889 0 0.01  0.4444444444444444 0 0.01  0.5 0 0.01  0.5555555555555556 0 0.01  0.6111111111111112 0 0.01  0.6666666666666666 0 0.01  0.7222222222222222 0 0.01  0.7777777777777778 0 0.01  0.8333333333333334 0 0.01  0.8888888888888888 0 0.01  0.9444444444444444 0 0.01  1 0 0.01  0 0.01428571428571429 0.01  0.05555555555555555 0.01428571428571429 0.01  0.1111111111111111 0.01428571428571429 0.01  0.1666666666666667 0.01428571428571429 0.01  0.2222222222222222 0.01428571428571429 0.01  0.2777777777777778 0.01428571428571429 0.01  0.3333333333333333 0.01428571428571429 0.01  0.3888888888888889 0.01428571428571429 0.01  0.4444444444444444 0.01428571428571429 0.01  0.5 0.01428571428571429 0.01  0.5555555555555556 0.01428571428571429 0.01  0.6111111111111112 0.01428571428571429 0.01  0.6666666666666666 0.01428571428571429 0.01  0.7222222222222222 0.01428571428571429 0.01  0.7777777777777778 0.01428571428571429 0.01  0.8333333333333334 0.01428571428571429 0.01  0.8888888888888888 0.01428571428571429 0.01  0.9444444444444444 0.01428571428571429 0.01  1 0.01428571428571429 0.01  0 0.02857142857142857 0.01  0.05555555555555555 0.02857142857142857 0.01  0.1111111111111111 0.02857142857142857 0.01  0.1666666666666667 0.02857142857142857 0.01  0.2222222222222222 0.02857142857142857 0.01  0.2777777777777778 0.02857142857142857 0.01  0.3333333333333333 0.02857142857142857 0.01  0.3888888888888889 0.02857142857142857 0.01  0.4444444444444444 0.02857142857142857 0.01  0.5 0.02857142857142857 0.01  0.5555555555555556 0.02857142857142857 0.01  0.6111111111111112 0.02857142857142857 0.01  0.6666666666666666 0.02857142857142857 0.01  0.7222222222222222 0.02857142857142857 0.01  0.7777777777777778 0.02857142857142857 0.01  0.8333333333333334 0.02857142857142857 0.01  0.8888888888888888 0.02857142857142857 0.01  0.9444444444444444 0.02857142857142857 0.01  1 0.02857142857142857 0.01  0 0.04285714285714286 0.01  0.05555555555555555 0.04285714285714286 0.01  0.1111111111111111 0.04285714285714286 0.01  0.1666666666666667 0.04285714285714286 0.01  0.2222222222222222 0.04285714285714286 0.01  0.2777777777777778 0.04285714285714286 0.01  0.3333333333333333 0.04285714285714286 0.01  0.3888888888888889 0.04285714285714286 0.01  0.4444444444444444 0.04285714285714286 0.01  0.5 0.04285714285714286 0.01  0.5555555555555556 0.04285714285714286 0.01  0.6111111111111112 0.04285714285714286 0.01  0.6666666666666666 0.04285714285714286 0.01  0.7222222222222222 0.04285714285714286 0.01  0.7777777777777778 0.04285714285714286 0.01  0.8333333333333334 0.04285714285714286 0.01  0.8888888888888888 0.04285714285714286 0.01  0.9444444444444444 0.04285714285714286 0.01  1 0.04285714285714286 0.01  0 0.05714285714285715 0.01  0.05555555555555555 0.05714285714285715 0.01  0.1111111111111111 0.05714285714285715 0.01  0.1666666666666667 0.05714285714285715 0.01  0.2222222222222222 0.05714285714285715 0.01  0.2777777777777778 0.05714285714285715 0.01  0.3333333333333333 0.05714285714285715 0.01  0.3888888888888889 0.05714285714285715 0.01  0.4444444444444444 0.05714285714285715 0.01  0.5 0.05714285714285715 0.01  0.5555555555555556 0.05714285714285715 0.01  0.6111111111111112 0.05714285714285715 0.01  0.6666666666666666 0.05714285714285715 0.01  0.7222222222222222 0.05714285714285715 0.01  0.7777777777777778 0.05714285714285715 0.01  0.8333333333333334 0.05714285714285715 0.01  0.8888888888888888 0.05714285714285715 0.01  0.9444444444444444 0.05714285714285715 0.01  1 0.05714285714285715 0.01  0 0.07142857142857142 0.01  0.05555555555555555 0.07142857142857142 0.01  0.1111111111111111 0.07142857142857142 0.01  0.1666666666666667 0.07142857142857142 0.01  0.2222222222222222 0.07142857142857142 0.01  0.2777777777777778 0.07142857142857142 0.01  0.3333333333333333 0.07142857142857142 0.01  0.3888888888888889 0.07142857142857142 0.01  0.4444444444444444 0.07142857142857142 0.01  0.5 0.07142857142857142 0.01  0.5555555555555556 0.07142857142857142 0.01  0.6111111111111112 0.07142857142857142 0.01  0.6666666666666666 0.07142857142857142 0.01  0.7222222222222222 0.07142857142857142 0.01  0.7777777777777778 0.07142857142857142 0.01  0.8333333333333334 0.07142857142857142 0.01  0.8888888888888888 0.07142857142857142 0.01  
[...]
<PointData  Vectors="f_36"> 
<DataArray  type="Float64"  Name="f_36"  NumberOfComponents="3" format="ascii">0.0000000000000000e+00 0.0000000000000000e+00 0.0000000000000000e+00  1.9567443323167074e-03 -3.8111784526522587e-03 8.7505825396324254e-03  2.3519129581594427e-03 -7.4379960964618477e-03 1.9224535156225631e-02  1.9245194358939155e-03 -1.0420385561440081e-02 2.8863691078698014e-02  8.1537969229164738e-04 -1.1944009453841069e-02 3.4837679230426910e-02  -5.0871157590518369e-04 -1.1547999200273136e-02 3.4691881491450791e-02  -1.1975183334054576e-03 -9.8751466605320592e-03 2.9511965115683773e-02  -8.1188323251775365e-04 -8.3958874721783115e-03 2.4124123318586113e-02  -3.2568261173071334e-06 -8.0529089780815317e-03 2.2895327819401737e-02  1.1409454808218650e-04 -8.2447626334360060e-03 2.4575195154703900e-02  -3.6701661114454340e-04 -7.8514550435205884e-03 2.4085814192769676e-02  -5.2990039885189989e-04 -6.9885146946708655e-03 2.1246606609861243e-02  -3.1628840523775613e-04 -6.3795760213385955e-03 1.9351182817435794e-02  -1.1914890497191681e-04 -6.1391219042478753e-03 1.8766441757678790e-02  -4.7959735599109029e-05 -6.0894755613173923e-03 1.8843536327138224e-02  -1.0709327186575707e-04 -6.0551507277551413e-03 1.9061571201087146e-02  -2.1656075298331771e-04 -5.9459101658517512e-03 1.8943296695122132e-02  -4.3303588750794503e-04 -5.8672991654437770e-03 1.8778311937552083e-02  -7.6838861517639426e-04 -6.1747525637818046e-03 1.8356131609748298e-02  0.0000000000000000e+00 0.0000000000000000e+00 0.0000000000000000e+00  1.8779948096876392e-03 -3.2275297844634580e-03 5.3799567961132439e-03  2.2667062342441764e-03 -6.5525262091439777e-03 1.2569728177033493e-02  1.8942781674962700e-03 -9.3969487260671843e-03 1.9453371884188820e-02  8.8031462226223348e-04 -1.0965889773850558e-02 2.3974778109921796e-02  -3.9455134405945490e-04 -1.0755906724289733e-02 2.4155548008098344e-02  -1.1321945734264769e-03 -9.2651348899895399e-03 2.0519845995206943e-02  -8.4565028016804478e-04 -7.8358027692778248e-03 1.6525677118658676e-02  -5.5579707074599918e-05 -7.4381216044297283e-03 1.5608992581630973e-02  1.5615896414118713e-04 -7.6215648856355813e-03 1.7079516338004648e-02  -2.9613851113865461e-04 -7.3141587587702561e-03 1.6968396457184561e-02  -5.1741000011951014e-04 -6.5257326615886114e-03 1.4948148708050942e-02  -3.1749047820577410e-04 -5.9318224357538269e-03 1.3614071953981531e-02  -1.1295786855408512e-04 -5.6849912397469154e-03 1.3267400009688369e-02  -3.4105288841298088e-05 -5.6306893935536119e-03 1.3397246468208017e-02  -7.6406163995090782e-05 -5.6043726518402708e-03 1.3644610231867782e-02  -1.6507709317072533e-04 -5.5100241984651606e-03 1.3634698895441531e-02  -2.9244482245806226e-04 -5.4419645610962906e-03 1.3621717678493567e-02  -7.5678576020058971e-04 -5.8902111426396685e-03 1.3592901030890116e-02  0.0000000000000000e+00 0.0000000000000000e+00 0.0000000000000000e+00  1.1465811309369247e-03 -1.9479767349212804e-03 2.2553178228830613e-03  1.4131021098839152e-03 -4.1440460582047303e-03 5.6574387106298274e-03  1.2016913041028739e-03 -6.1340877260991130e-03 9.0433256444211324e-03  5.9393438447624171e-04 -7.3254553841633372e-03 1.1406854387403093e-02  -1.9476270254562933e-04 -7.2959696179805932e-03 1.1682953145747041e-02  -6.7625639630354952e-04 -6.3031246762479546e-03 1.0000636768480087e-02  -5.2702121670419530e-04 -5.2655203959100947e-03 8.0358396648833545e-03  -3.3698126099237248e-05 -4.9465335741075128e-03 7.6101317231435468e-03  1.3352844566196520e-04 -5.1118452904980512e-03 8.5071166542701783e-03  -1.3982136357006814e-04 -4.9603671309393629e-03 8.6365841716894206e-03  -2.9993970711591979e-04 -4.4243281248833814e-03 7.7218216419563659e-03  -1.7850324651560190e-04 -3.9990697472646834e-03 7.1439900974088165e-03  -4.5241847386557688e-05 -3.8227596564889602e-03 7.0761671101459891e-03  7.2100071651575871e-06 -3.7898668599199068e-03 7.2423490637224955e-03  -1.3255157677869585e-05 -3.7849365589831675e-03 7.4754147939017227e-03  -6.2044274784877650e-05 -3.7337588004365428e-03 7.5754462526960937e-03  -8.5137845611015585e-05 -3.6771972879365796e-03 7.6851385757856876e-03  -7.3516550547902449e-04 -4.2870276925440981e-03 7.9400678903660416e-03  0.0000000000000000e+00 0.0000000000000000e+00 0.0000000000000000e+00  1.0718312685933821e-05 -9.2638923170137434e-07 1.6184799897428187e-05  2.0173263882860670e-05 -2.9312318231986236e-06 5.9980663915457155e-05  2.8402063601152573e-05 -5.9794366835113157e-06 1.2868314255608999e-04  3.5451755246294191e-05 -9.9210577308507044e-06 2.1882515275132696e-04  4.1434851972255355e-05 -1.4636285415488771e-05 3.2721843104230476e-04  4.6477276858494608e-05 -2.0015678941757989e-05 4.5103826961697004e-04  5.0691152005181513e-05 -2.5961815726744206e-05 5.8781785075255675e-04  5.4162979250623733e-05 -3.2387372367986326e-05 7.3537006072885820e-04  5.6965108777627741e-05 -3.9212115667197422e-05 8.9170868600118366e-04  5.9175302516532402e-05 -4.6361733095682980e-05 1.0550422400155263e-03  6.0877915003806576e-05 -5.3769643034585147e-05 1.2238197826117912e-03  6.2150382726349697e-05 -6.1378101954704506e-05 1.3967318533962224e-03  6.3059370902941153e-05 -6.9136899952815310e-05 1.5726664941349163e-03  6.3666536515488039e-05 -7.7002520695880597e-05 1.7506860564428317e-03  6.4032777829372851e-05 -8.4938352926456389e-05 1.9300227808503763e-03  6.4219790141584502e-05 -9.2914953243981591e-05 2.1100808165668361e-03  6.4289078132743596e-05 -1.0091062369997469e-04 2.2904401710113586e-03  6.4301391459574994e-05 -1.0891310620209358e-04 2.4708544302828282e-03  0.0000000000000000e+00 0.0000000000000000e+00 0.0000000000000000e+00  1.0134855684879723e-05 -1.4949000449282435e-06 1.6016121463349277e-05  1.9989307773593806e-05 -3.4299299283911324e-06 5.9735415001594731e-05  2.8584222712166522e-05 -6.4085508221697755e-06 1.2840412335925468e-04  3.5955752467184120e-05 -1.0284499578648359e-05 2.1851479133537936e-04  4.2218533917593224e-05 -1.4942208107325550e-05 3.2687950834956310e-04  4.7502019271250191e-05 -2.0271874098227552e-05 4.5067437547471255e-04  5.1923873827502799e-05 -2.6173934707085930e-05 5.8743294885188447e-04  5.5575332638869346e-05 -3.2559221984641841e-05 7.3496737523137429e-04  5.8530493416098754e-05 -3.9347608526695696e-05 8.9129026954575126e-04  6.0867402211271740e-05 -4.6465944440743869e-05 1.0546097097710670e-03  6.2672602011973447e-05 -5.3847638129233497e-05 1.2233749453692624e-03  6.4027110944663492e-05 -6.1433931930303455e-05 1.3962763738937256e-03  6.5000242172630332e-05 -6.9174076126501179e-05 1.5722016803635854e-03  6.5655563720745967e-05 -7.7024520100443399e-05 1.7502131226974811e-03  6.6055685475375372e-05 -8.4948775448596273e-05 1.9295429763422670e-03  6.6264097998219621e-05 -9.2917492495280335e-05 2.1095954376603642e-03  6.6344530880185339e-05 -1.0090884652340151e-04 2.2899504650072669e-03  6.6360166436539635e-05 -1.0890974505982260e-04 2.4703611326947835e-03  0.0000000000000000e+00 0.0000000000000000e+00 0.0000000000000000e+00  1.2665211884437075e-03 2.1545519333155926e-03 3.3286964931351897e-03  1.4141082453382741e-03 4.5109734534287725e-03 7.1994061040359754e-03  1.1228038065769720e-03 6.6744610144127154e-03 1.0677290604419513e-02  4.6226271186852421e-04 8.0193318616368029e-03 1.2769801731941871e-02  -2.9740572468468947e-04 8.0913996779492514e-03 1.2570299413436929e-02  -6.6445814834890200e-04 7.1037454474720332e-03 1.0580049418016898e-02  -4.1237707264059624e-04 5.9653894387708710e-03 8.6994905190942110e-03  5.4543440931962250e-05 5.5078651729332474e-03 8.5268821217242951e-03  1.2224887274281453e-04 5.6102177436852443e-03 9.3887446973761942e-03  -1.4186666732858748e-04 5.4930652384139909e-03 9.3292144792091296e-03  -2.4905754105550016e-04 4.9628752338159122e-03 8.4101802598042057e-03  -1.6113209713381537e-04 4.4421184897073885e-03 7.8254361759447170e-03  -6.1593024522187725e-05 4.1213543429680531e-03 7.6235711118107135e-03  -4.9794711366268948e-06 3.9536577480516946e-03 7.6470874658664846e-03  -2.2663065355429567e-05 3.8482038424854305e-03 7.7527130607164662e-03  -6.0622894297540152e-05 3.7246385883953200e-03 7.7213772454004913e-03  -1.1212412978581728e-04 3.6958665126964794e-03 7.7617912634482403e-03  -4.5318531465719808e-04 4.1489468041468842e-03 7.6506313178287856e-03  0.0000000000000000e+00 0.0000000000000000e+00 0.0000000000000000e+00  2.0006031241144267e-03 2.7843538864943691e-03 6.5456188221805524e-03  2.2773594376352445e-03 6.0747147234052352e-03 1.4131782945613890e-02  1.8199419217715038e-03 9.1430547930817542e-03 2.0966227292456147e-02  7.7192336009211117e-04 1.1144518267867661e-02 2.5120042821001710e-02  -4.6702527159577905e-04 1.1416822349005115e-02 2.4856103512850801e-02  -1.1056850173827677e-03 1.0167186300785084e-02 2.1046640098844910e-02  -7.3725973514711222e-04 8.5813572134343097e-03 1.7237194074832242e-02  3.4136240005206843e-05 7.8444418880937831e-03 1.6528203106213814e-02  1.8880174891788398e-04 7.9178214071347220e-03 1.7874571520402203e-02  -2.4511672977563980e-04 7.7828702710126922e-03 1.7650689378689181e-02  -4.4812163415538581e-04 7.0862234964268129e-03 1.5755765072996308e-02  -3.0590524699872104e-04 6.3522072302655197e-03 1.4389562799345109e-02  -1.4389525804748475e-04 5.8778647865818630e-03 1.3760609118348276e-02  -4.9959642460982913e-05 5.6228669429202642e-03 1.3578596916649492e-02  -7.3289231494931225e-05 5.4688697049697565e-03 1.3585871708366762e-02  -1.5197073237074131e-04 5.3041173554213145e-03 1.3361825825430896e-02  -2.4240786743800425e-04 5.2908505382781657e-03 1.3264509503331133e-02  -4.6237805914290563e-04 6.0094571980351232e-03 1.2979360545448994e-02  0.0000000000000000e+00 0.0000000000000000e+00 0.0000000000000000e+00  2.0196768958949613e-03 2.7100791817200745e-03 9.0292488909414163e-03  2.3751716126216623e-03 6.2195453431025029e-03 1.9529463420742046e-02  1.9555251216737193e-03 9.5337169089120839e-03 2.9065401229013060e-02  9.2093948917360913e-04 1.1777751541202046e-02 3.4978865728099467e-02  -3.9097200640424807e-04 1.2210570305463768e-02 3.4942331966150299e-02  -1.1566839586915718e-03 1.0977102040860441e-02 3.0006805920859785e-02  -8.5389170647386852e-04 9.2866333476487248e-03 2.4776058641545032e-02  -7.0577751235292440e-06 8.4343153394466717e-03 2.3424546101502221e-02  2.5909539560184836e-04 8.4710738667807921e-03 2.4890987163128927e-02  -2.0194543100664482e-04 8.3473663189289268e-03 2.4569046754927659e-02  -4.7968422819994551e-04 7.6340882265408701e-03 2.2029507882988551e-02  -3.3325787432406107e-04 6.8494417646796845e-03 2.0020584654464876e-02  -1.5752432724782764e-04 6.3239620546422801e-03 1.8990821686602384e-02  -5.4825417043940361e-05 6.0360708862627049e-03 1.8590577399753810e-02  -7.0708872248599576e-05 5.8683215858843993e-03 1.8486673563011986e-02  -1.8124749641138150e-04 5.6997339946546323e-03 1.8133737516940397e-02  -3.4505181752872828e-04 5.6811177467918127e-03 1.7975589782864135e-02  -5.1960160875911946e-04 6.5086092406279449e-03 1.7893499629967523e-02  0.0000000000000000e+00 0.0000000000000000e+00 0.0000000000000000e+00  7.8640543310010494e-04 -1.4869731840231042e-03 8.4290592655781333e-03  1.0465680222265360e-03 -3.0983334771772933e-03 1.8865145762208886e-02  9.0590391358935825e-04 -4.4458503406435580e-03 2.8489989416821845e-02  4.5521688563352050e-04 -5.1824982813524654e-03 3.4514941638821378e-02  -1.3300579186774477e-04 -5.0655709270743254e-03 3.4455336091631809e-02  -5.0417444679797896e-04 -4.3345844830077074e-03 2.9321032014340605e-02  -4.1501852820943904e-04 -3.6450913547493632e-03 2.3904940536793436e-02  -6.9551841829016664e-05 -3.4726704437651368e-03 2.2633764890410253e-02  4.2795354396268563e-05 -3.5887256172654788e-03 2.4338293629376371e-02  -1.3598318934614247e-04 -3.4525441710486476e-03 2.3908618190902554e-02  -2.3528067254676764e-04 -3.0743043393658500e-03 2.1085272617560439e-02  -1.6997447706654375e-04 -2.7997591285380892e-03 1.9178735264943604e-02  -9.5871615305812748e-05 -2.6971126561447082e-03 1.8591200745749614e-02  -7.4974629456837257e-05 -2.6801395482761716e-03 1.8670896928625107e-02  -1.1747523845325326e-04 -2.6705052685234150e-03 1.8896799832124347e-02  -2.0322314937520956e-04 -2.6294849192006922e-03 1.8785346785213031e-02  -3.8867196621650204e-04 -2.6540012208800634e-03 1.8619871904075672e-02  -6.7470844572569820e-04 -3.0167036023599487e-03 1.8197050099561313e-02  0.0000000000000000e+00 0.0000000000000000e+00 0.0000000000000000e+00  8.5267762565907200e-04 -1.3076998339779521e-03 5.1494468572920397e-03  1.0995703718584269e-03 -2.7103511159241420e-03 1.2292497233922225e-02  9.4852127566251085e-04 -3.9224689304741822e-03 1.9144685342932215e-02  4.8796273691820396e-04 -4.6089810945142314e-03 2.3685113558060796e-02  -1.2267968405206824e-04 -4.5456278703019277e-03 2.3917587051814633e-02  -5.2112364839784764e-04 -3.9251299191624201e-03 2.0309690393999769e-02  -4.4482146217731040e-04 -3.3123625984770228e-03 1.6293151487375153e-02  -8.2851632968943166e-05 -3.1360577269402535e-03 1.5348017673519985e-02  5.9835915244886219e-05 -3.2237757831348303e-03 1.6846334836889815e-02  -1.2418229680931597e-04 -3.1112264845489014e-03 1.6788197925788131e-02  -2.4687562102577109e-04 -2.7843299454198517e-03 1.4778714830237944e-02  -1.7656055629216018e-04 -2.5347276134525983e-03 1.3435589202694097e-02  -9.0017663988939015e-05 -2.4349401647898402e-03 1.3092048373974050e-02  -6.1935434380413606e-05 -2.4153116778194020e-03 1.3228002842139078e-02  -9.5637351518267259e-05 -2.4061190041920169e-03 1.3483733326247778e-02  -1.6210588054295713e-04 -2.3679399900548501e-03 1.3479837709306582e-02  -2.7222427292580891e-04 -2.3729514223689466e-03 1.3470303309393271e-02  -6.2420806139347419e-04 -2.7575289303633467e-03 1.3480607327241748e-02  0.0000000000000000e+00 0.0000000000000000e+00 0.0000000000000000e+00  5.6452141276828094e-04 -7.9335122918821797e-04 1.9806697446302815e-03  7.2558841058063730e-04 -1.6533076919278062e-03 5.1999793322585726e-03  6.2909653265842496e-04 -2.4256517822789626e-03 8.4317474022755148e-03  3.3291137067876082e-04 -2.8826454611580701e-03 1.0724959430986650e-02  -6.4889881728459974e-05 -2.8715978007943189e-03 1.1022625862506352e-02  -3.3012085903588945e-04 -2.4981378187813367e-03 9.4027456047191867e-03  -2.8711879312983508e-04 -2.1102052652653032e-03 7.4798094190181366e-03  -4.9874776189183494e-05 -1.9884735904340156e-03 7.0660362112358478e-03  5.4842277804548409e-05 -2.0429121825783591e-03 7.9891737779471724e-03  -6.2583281081279217e-05 -1.9819701209713579e-03 8.1685979644563998e-03  -1.5088323469571193e-04 -1.7825215307215039e-03 7.2894849683756225e-03  -1.0476884386913190e-04 -1.6244057661991887e-03 6.7321697744641583e-03  -4.3829570763639209e-05 -1.5596474698482288e-03 6.6835055149969133e-03  -2.2971816924368461e-05 -1.5482181767201791e-03 6.8616143418639983e-03  -4.0629065833865398e-05 -1.5462771034137975e-03 7.1040311927338803e-03  -7.5479769569739816e-05 -1.5271460320905011e-03 7.2132620345811806e-03  -1.0424194787726204e-04 -1.5155305558491965e-03 7.3274748690994266e-03  -5.2386653296470861e-04 -1.8487259950109448e-03 7.5923542634899494e-03  0.0000000000000000e+00 0.0000000000000000e+00 0.0000000000000000e+00  5.0457444734669833e-06 -8.5828011392321252e-07 1.5740946515475127e-05  9.7955819960221052e-06 -2.8391460050953433e-06 5.9584300486906080e-05  1.3894991471383398e-05 -5.8502701342583637e-06 1.2833780375503623e-04  1.7407517940990171e-05 -9.7592651919435366e-06 2.1852919872286335e-04  2.0389255751950990e-05 -1.4445297520968135e-05 3.2696718791204319e-04  2.2902413311298220e-05 -1.9799522312290622e-05 4.5082665729547227e-04  2.5003371684812391e-05 -2.5724181468450485e-05 5.8764132837512610e-04  2.6736084689092717e-05 -3.2130933780743110e-05 7.3522495694719925e-04  2.8136595769802971e-05 -3.8938817127952438e-05 8.9159176556608401e-04  2.9242736294529140e-05 -4.6073632733207453e-05 1.0549501088146470e-03  3.0095933657134697e-05 -5.3468937538249933e-05 1.2237489189081030e-03  3.0734876807606989e-05 -6.1066580637456411e-05 1.3966790312500920e-03  3.1192871267540396e-05 -6.8815986369878473e-05 1.5726288642268639e-03  3.1500457274992956e-05 -7.6673596132400526e-05 1.7506609511018833e-03  3.1687659016269151e-05 -8.4602878487643958e-05 1.9300075706465954e-03  3.1784850901801133e-05 -9.2574463779343243e-05 2.1100728527488960e-03  3.1822286383976281e-05 -1.0056664084013695e-04 2.2904367804090788e-03  3.1829252235673391e-05 -1.0856651403336633e-04 2.4708518930305480e-03  0.0000000000000000e+00 0.0000000000000000e+00 0.0000000000000000e+00  5.1254097195260637e-06 -1.2756363923285088e-06 1.5481017677354727e-05  1.0228433402644337e-05 -3.1710030545491032e-06 5.9296322583548242e-05  1.4604713581087119e-05 -6.1338205453238884e-06 1.2802233196522841e-04  1.8359594984154042e-05 -1.0000076036171611e-05 2.1818705186830428e-04  2.1551064298645947e-05 -1.4648469615071886e-05 3.2660072615954707e-04  2.4244295513729610e-05 -1.9969889791674648e-05 4.5043906987170913e-04  2.6499008191211528e-05 -2.5865554547434761e-05 5.8723600944574647e-04  2.8362017169566591e-05 -3.2246089598271188e-05 7.3480465865078250e-04  2.9871237912863342e-05 -3.9030362278687664e-05 8.9115835547409490e-04  3.1065952512728964e-05 -4.6144648443223410e-05 1.0545051384471039e-03  3.1989613881360887e-05 -5.3522588723083210e-05 1.2232939655365098e-03  3.2683345748179190e-05 -6.1105567564369192e-05 1.3962154232258714e-03  3.3182573890458662e-05 -6.8842648772648359e-05 1.5721576473748343e-03  3.3519682589170607e-05 -7.6690187071260771e-05 1.7501831434811608e-03  3.3726482325640076e-05 -8.4611690338465287e-05 1.9295242572276796e-03  3.3835214084372914e-05 -9.2577834056727470e-05 2.1095851738094956e-03  3.3878241354462047e-05 -1.0056681346314571e-04 2.2899458608496470e-03  3.3887215037175989e-05 -1.0856521470152030e-04 2.4703590491785537e-03  0.0000000000000000e+00 0.0000000000000000e+00 0.0000000000000000e+00  6.3138659455771811e-04 7.6375093071650430e-04 2.9520647038446032e-03  7.4324740057057264e-04 1.5754620575706216e-03 6.4054942768603804e-03  6.2017349745719383e-04 2.3399520855745624e-03 9.4667578375413550e-03  3.0209993905905145e-04 2.8241560667791707e-03 1.1272257801278069e-02  -9.6740224993087297e-05 2.8625368604869570e-03 1.0998825949079642e-02  -3.2843392038469136e-04 2.5220210914074794e-03 9.1273062616471362e-03  -2.4092518280415071e-04 2.1157522987908261e-03 7.4304895156138652e-03  2.4556690600452930e-06 1.9391051459403869e-03 7.3734914109444098e-03  7.6279078659345225e-05 1.9623221611660942e-03 8.2666998099823700e-03  -4.5508107838321076e-05 1.9179596974793519e-03 8.2349729288020684e-03  -1.1930247224116764e-04 1.7291774956492631e-03 7.3890128564052778e-03  -8.7249932307619362e-05 1.5384244865782333e-03 6.8970311300052571e-03  -3.9769705286472885e-05 1.4173226372119778e-03 6.7674394049490267e-03  -1.1767382798738948e-05 1.3503248272924550e-03 6.8333357734467618e-03  -2.4825717386019696e-05 1.3031162847707953e-03 6.9663218770258852e-03  -5.9285273114641680e-05 1.2490065444868926e-03 6.9562656525606822e-03  -8.8626729389246214e-05 1.2501300118076494e-03 6.9962249543677737e-03  -3.4856871854540991e-04 1.4583004714573090e-03 6.7095662937999246e-03  0.0000000000000000e+00 0.0000000000000000e+00 0.0000000000000000e+00  9.0834389185803560e-04 1.2120274241032426e-03 6.3128720688173613e-03  1.1174136406848659e-03 2.6801345913958509e-03 1.3775566006508000e-02  9.3529412951304420e-04 4.0726547834142200e-03 2.0445740589741527e-02  4.6283321244076182e-04 5.0033024729167104e-03 2.4484601458578628e-02  -1.4313572326828109e-04 5.1590617417929894e-03 2.4179692412638277e-02  -5.0867533821269406e-04 4.6139903621166042e-03 2.0384388913526855e-02  -3.8733475633839927e-04 3.8918722525907038e-03 1.6612140013774656e-02  -1.0938058926544495e-05 3.5372900610192502e-03 1.5946673773410049e-02  1.1528221560440628e-04 3.5554226208599038e-03 1.7342754286277136e-02  -7.2793664003102345e-05 3.4954012235341235e-03 1.7157421931425460e-02  -1.9409753849335373e-04 3.1838263772777918e-03 1.5282490961097649e-02  -1.4660701907903649e-04 2.8463910978821904e-03 1.3943801309331299e-02  -7.6930578567193012e-05 2.6232106704063775e-03 1.