<?xml version="1.0"?>
<VTKFile type="UnstructuredGrid"  version="0.1"  >
<UnstructuredGrid>
<Piece  NumberOfPoints="760" NumberOfCells="3024">
<Points>
<DataArray  type="Float64"  NumberOfComponents="3"  format="ascii">0 0 0  0.05555555555555555 0 0  0.1111111111111111 0 0  0.1666666666666667 0 0  0.2222222222222222 0 0  0.2777777777777778 0 0  0.3333333333333333 0 0  0.3888888888888889 0 0  0.4444444444444444 0 0  0.5 0 0  0.5555555555555556 0 0  0.6111111111111112 0 0  0.6666666666666666 0 0  0.7222222222222222 0 0  0.7777777777777778 0 0  0.8333333333333334 0 0  0.8888888888888888 0 0  0.9444444444444444 0 0  1 0 0  0 0.01428571428571429 0  0.05555555555555555 0.01428571428571429 0  0.1111111111111111 0.01428571428571429 0  0.1666666666666667 0.01428571428571429 0  0.2222222222222222 0.01428571428571429 0  0.2777777777777778 0.01428571428571429 0  0.3333333333333333 0.01428571428571429 0  0.3888888888888889 0.01428571428571429 0  0.4444444444444444 0.01428571428571429 0  0.5 0.01428571428571429 0  0.5555555555555556 0.01428571428571429 0  0.6111111111111112 0.01428571428571429 0  0.6666666666666666 0.01428571428571429 0  0.7222222222222222 0.01428571428571429 0  0.7777777777777778 0.01428571428571429 0  0.8333333333333334 0.01428571428571429 0  0.8888888888888888 0.01428571428571429 0  0.9444444444444444 0.01428571428571429 0  1 0.01428571428571429 0  0 0.02857142857142857 0  0.05555555555555555 0.02857142857142857 0  0.1111111111111111 0.02857142857142857 0  0.1666666666666667 0.02857142857142857 0  0.2222222222222222 0.02857142857142857 0  0.2777777777777778 0.02857142857142857 0  0.3333333333333333 0.02857142857142857 0  0.3888888888888889 0.02857142857142857 0  0.4444444444444444 0.02857142857142857 0  0.5 0.02857142857142857 0  0.5555555555555556 0.02857142857142857 0  0.6111111111111112 0.02857142857142857 0  0.6666666666666666 0.02857142857142857 0  0.7222222222222222 0.02857142857142857 0  0.7777777777777778 0.02857142857142857 0  0.8333333333333334 0.02857142857142857 0  0.8888888888888888 0.02857142857142857 0  0.9444444444444444 0.02857142857142857 0  1 0.02857142857142857 0  0 0.04285714285714286 0  0.05555555555555555 0.04285714285714286 0  0.1111111111111111 0.04285714285714286 0  0.1666666666666667 0.04285714285714286 0  0.2222222222222222 0.04285714285714286 0  0.2777777777777778 0.04285714285714286 0  0.3333333333333333 0.04285714285714286 0  0.3888888888888889 0.04285714285714286 0  0.4444444444444444 0.04285714285714286 0  0.5 0.04285714285714286 0  0.5555555555555556 0.04285714285714286 0  0.6111111111111112 0.04285714285714286 0  0.6666666666666666 0.04285714285714286 0  0.7222222222222222 0.04285714285714286 0  0.7777777777777778 0.04285714285714286 0  0.8333333333333334 0.04285714285714286 0  0.8888888888888888 0.04285714285714286 0  0.9444444444444444 0.04285714285714286 0  1 0.04285714285714286 0  0 0.05714285714285715 0  0.05555555555555555 0.05714285714285715 0  0.1111111111111111 0.05714285714285715 0  0.1666666666666667 0.05714285714285715 0  0.2222222222222222 0.05714285714285715 0  0.2777777777777778 0.05714285714285715 0  0.3333333333333333 0.05714285714285715 0  0.3888888888888889 0.05714285714285715 0  0.4444444444444444 0.05714285714285715 0  0.5 0.05714285714285715 0  0.5555555555555556 0.05714285714285715 0  0.6111111111111112 0.05714285714285715 0  0.6666666666666666 0.05714285714285715 0  0.7222222222222222 0.05714285714285715 0  0.7777777777777778 0.05714285714285715 0  0.8333333333333334 0.05714285714285715 0  0.8888888888888888 0.05714285714285715 0  0.9444444444444444 0.05714285714285715 0  1 0.05714285714285715 0  0 0.07142857142857142 0  0.05555555555555555 0.07142857142857142 0  0.1111111111111111 0.07142857142857142 0  0.1666666666666667 0.07142857142857142 0  0.2222222222222222 0.07142857142857142 0  0.2777777777777778 0.07142857142857142 0  0.3333333333333333 0.07142857142857142 0  0.3888888888888889 0.07142857142857142 0  0.4444444444444444 0.07142857142857142 0  0.5 0.07142857142857142 0  0.5555555555555556 0.07142857142857142 0  0.6111111111111112 0.07142857142857142 0  0.6666666666666666 0.07142857142857142 0  0.7222222222222222 0.07142857142857142 0  0.7777777777777778 0.07142857142857142 0  0.8333333333333334 0.07142857142857142 0  0.8888888888888888 0.07142857142857142 0  0.9444444444444444 0.07142857142857142 0  1 0.07142857142857142 0  0 0.08571428571428573 0  0.05555555555555555 0.08571428571428573 0  0.1111111111111111 0.08571428571428573 0  0.1666666666666667 0.08571428571428573 0  0.2222222222222222 0.08571428571428573 0  0.2777777777777778 0.08571428571428573 0  0.3333333333333333 0.08571428571428573 0  0.3888888888888889 0.08571428571428573 0  0.4444444444444444 0.08571428571428573 0  0.5 0.08571428571428573 0  0.5555555555555556 0.08571428571428573 0  0.6111111111111112 0.08571428571428573 0  0.6666666666666666 0.08571428571428573 0  0.7222222222222222 0.08571428571428573 0  0.7777777777777778 0.08571428571428573 0  0.8333333333333334 0.08571428571428573 0  0.8888888888888888 0.08571428571428573 0  0.9444444444444444 0.08571428571428573 0  1 0.08571428571428573 0  0 0.1 0  0.05555555555555555 0.1 0  0.1111111111111111 0.1 0  0.1666666666666667 0.1 0  0.2222222222222222 0.1 0  0.2777777777777778 0.1 0  0.3333333333333333 0.1 0  0.3888888888888889 0.1 0  0.4444444444444444 0.1 0  0.5 0.1 0  0.5555555555555556 0.1 0  0.6111111111111112 0.1 0  0.6666666666666666 0.1 0  0.7222222222222222 0.1 0  0.7777777777777778 0.1 0  0.8333333333333334 0.1 0  0.8888888888888888 0.1 0  0.9444444444444444 0.1 0  1 0.1 0  0 0 0.01  0.05555555555555555 0 0.01  0.1111111111111111 0 0.01  0.1666666666666667 0 0.01  0.2222222222222222 0 0.01  0.2777777777777778 0 0.01  0.3333333333333333 0 0.01  0.3888888888888889 0 0.01  0.4444444444444444 0 0.01  0.5 0 0.01  0.5555555555555556 0 0.01  0.6111111111111112 0 0.01  0.6666666666666666 0 0.01  0.7222222222222222 0 0.01  0.7777777777777778 0 0.01  0.8333333333333334 0 0.01  0.8888888888888888 0 0.01  0.9444444444444444 0 0.01  1 0 0.01  0 0.01428571428571429 0.01  0.05555555555555555 0.01428571428571429 0.01  0.1111111111111111 0.01428571428571429 0.01  0.1666666666666667 0.01428571428571429 0.01  0.2222222222222222 0.01428571428571429 0.01  0.2777777777777778 0.01428571428571429 0.01  0.3333333333333333 0.01428571428571429 0.01  0.3888888888888889 0.01428571428571429 0.01  0.4444444444444444 0.01428571428571429 0.01  0.5 0.01428571428571429 0.01  0.5555555555555556 0.01428571428571429 0.01  0.6111111111111112 0.01428571428571429 0.01  0.6666666666666666 0.01428571428571429 0.01  0.7222222222222222 0.01428571428571429 0.01  0.7777777777777778 0.01428571428571429 0.01  0.8333333333333334 0.01428571428571429 0.01  0.8888888888888888 0.01428571428571429 0.01  0.9444444444444444 0.01428571428571429 0.01  1 0.01428571428571429 0.01  0 0.02857142857142857 0.01  0.05555555555555555 0.02857142857142857 0.01  0.1111111111111111 0.02857142857142857 0.01  0.1666666666666667 0.02857142857142857 0.01  0.2222222222222222 0.02857142857142857 0.01  0.2777777777777778 0.02857142857142857 0.01  0.3333333333333333 0.02857142857142857 0.01  0.3888888888888889 0.02857142857142857 0.01  0.4444444444444444 0.02857142857142857 0.01  0.5 0.02857142857142857 0.01  0.5555555555555556 0.02857142857142857 0.01  0.6111111111111112 0.02857142857142857 0.01  0.6666666666666666 0.02857142857142857 0.01  0.7222222222222222 0.02857142857142857 0.01  0.7777777777777778 0.02857142857142857 0.01  0.8333333333333334 0.02857142857142857 0.01  0.8888888888888888 0.02857142857142857 0.01  0.9444444444444444 0.02857142857142857 0.01  1 0.02857142857142857 0.01  0 0.04285714285714286 0.01  0.05555555555555555 0.04285714285714286 0.01  0.1111111111111111 0.04285714285714286 0.01  0.1666666666666667 0.04285714285714286 0.01  0.2222222222222222 0.04285714285714286 0.01  0.2777777777777778 0.04285714285714286 0.01  0.3333333333333333 0.04285714285714286 0.01  0.3888888888888889 0.04285714285714286 0.01  0.4444444444444444 0.04285714285714286 0.01  0.5 0.04285714285714286 0.01  0.5555555555555556 0.04285714285714286 0.01  0.6111111111111112 0.04285714285714286 0.01  0.6666666666666666 0.04285714285714286 0.01  0.7222222222222222 0.04285714285714286 0.01  0.7777777777777778 0.04285714285714286 0.01  0.8333333333333334 0.04285714285714286 0.01  0.8888888888888888 0.04285714285714286 0.01  0.9444444444444444 0.04285714285714286 0.01  1 0.04285714285714286 0.01  0 0.05714285714285715 0.01  0.05555555555555555 0.05714285714285715 0.01  0.1111111111111111 0.05714285714285715 0.01  0.1666666666666667 0.05714285714285715 0.01  0.2222222222222222 0.05714285714285715 0.01  0.2777777777777778 0.05714285714285715 0.01  0.3333333333333333 0.05714285714285715 0.01  0.3888888888888889 0.05714285714285715 0.01  0.4444444444444444 0.05714285714285715 0.01  0.5 0.05714285714285715 0.01  0.5555555555555556 0.05714285714285715 0.01  0.6111111111111112 0.05714285714285715 0.01  0.6666666666666666 0.05714285714285715 0.01  0.7222222222222222 0.05714285714285715 0.01  0.7777777777777778 0.05714285714285715 0.01  0.8333333333333334 0.05714285714285715 0.01  0.8888888888888888 0.05714285714285715 0.01  0.9444444444444444 0.05714285714285715 0.01  1 0.05714285714285715 0.01  0 0.07142857142857142 0.01  0.05555555555555555 0.07142857142857142 0.01  0.1111111111111111 0.07142857142857142 0.01  0.1666666666666667 0.07142857142857142 0.01  0.2222222222222222 0.07142857142857142 0.01  0.2777777777777778 0.07142857142857142 0.01  0.3333333333333333 0.07142857142857142 0.01  0.3888888888888889 0.07142857142857142 0.01  0.4444444444444444 0.07142857142857142 0.01  0.5 0.07142857142857142 0.01  0.5555555555555556 0.07142857142857142 0.01  0.6111111111111112 0.07142857142857142 0.01  0.6666666666666666 0.07142857142857142 0.01  0.7222222222222222 0.07142857142857142 0.01  0.7777777777777778 0.07142857142857142 0.01  0.8333333333333334 0.07142857142857142 0.01  0.8888888888888888 0.07142857142857142 0.01  
[...]
<PointData  Vectors="f_36"> 
<DataArray  type="Float64"  Name="f_36"  NumberOfComponents="3" format="ascii">0.0000000000000000e+00 0.0000000000000000e+00 0.0000000000000000e+00  -1.0672049469236681e-03 1.8306050981166976e-03 -3.4684190310932620e-03  -1.9694065446393882e-03 4.4590169659730339e-03 -1.0113253506747263e-02  -2.5354077035770351e-03 7.9028739841027120e-03 -2.0283252289057252e-02  -2.1084971911168263e-03 1.1066079111892193e-02 -3.1097839592829534e-02  -6.9229610265243453e-04 1.2517885384291619e-02 -3.7050669219081393e-02  3.2403428966740541e-04 1.2191540394819745e-02 -3.5829228930272114e-02  8.7768732936284653e-05 1.1730331899053212e-02 -3.3606524069193858e-02  -3.2180062628436314e-04 1.2002549413115089e-02 -3.4998750589389414e-02  -3.4987833732761964e-04 1.2393396049186279e-02 -3.6698451047032225e-02  -2.6826047827942717e-04 1.2637905014081501e-02 -3.7897918229864554e-02  -1.0529286938000139e-04 1.2703719750097106e-02 -3.8554192465802689e-02  -2.5139156418376845e-04 1.2825228164038607e-02 -3.8574319918620412e-02  -5.5418286931897972e-04 1.3467720453339205e-02 -4.0701755886791875e-02  -4.9771719001129116e-04 1.4249012346228032e-02 -4.3770462179689371e-02  -2.0669789973965639e-04 1.4703100309010326e-02 -4.5686319577423556e-02  1.2967768848592861e-04 1.4845819603073641e-02 -4.6673423839501342e-02  7.5046355162625437e-04 1.4895431092896769e-02 -4.7163820517180245e-02  1.6018512792193680e-03 1.5709119371596414e-02 -4.6586754290777042e-02  0.0000000000000000e+00 0.0000000000000000e+00 0.0000000000000000e+00  -9.8323496428135218e-04 1.4992107952936944e-03 -1.8820153362985711e-03  -1.8183784891662906e-03 3.8193206995260232e-03 -6.1768092594702171e-03  -2.3964714417125804e-03 6.9664643723001182e-03 -1.3201570539945700e-02  -2.0903369534051464e-03 9.9798951786788555e-03 -2.1063533129748891e-02  -8.0138926490815434e-04 1.1490724704589058e-02 -2.5650993041976378e-02  2.7802286104859386e-04 1.1284070536077141e-02 -2.4792551941987869e-02  1.4834647810551760e-04 1.0826967259149457e-02 -2.3015668946805054e-02  -3.1284255223705044e-04 1.1045055935433500e-02 -2.4130542876828885e-02  -3.5474536405054151e-04 1.1418984738766357e-02 -2.5509656190590542e-02  -2.7295228955322273e-04 1.1663376155324702e-02 -2.6489547444326855e-02  -1.2820947009350634e-04 1.1736017431070559e-02 -2.7102640996053751e-02  -2.1647415957316301e-04 1.1823470083307154e-02 -2.7072353435731049e-02  -5.2904348456362966e-04 1.2385337327551284e-02 -2.8622757494894131e-02  -5.2091282029595421e-04 1.3122782805654222e-02 -3.0994949995184474e-02  -2.4602099673982843e-04 1.3579890603118911e-02 -3.2517962444868695e-02  3.3131457799342141e-05 1.3743211583689678e-02 -3.3385187224143541e-02  4.3701660866950892e-04 1.3831347882858369e-02 -3.4009773778241992e-02  1.6218462087738315e-03 1.5013638549386329e-02 -3.4344328694468448e-02  0.0000000000000000e+00 0.0000000000000000e+00 0.0000000000000000e+00  -5.9318458295073116e-04 8.3896331509209854e-04 -6.8887478328112086e-04  -1.1143036762984149e-03 2.2904012832610089e-03 -2.6194452067923651e-03  -1.4916612451050858e-03 4.3900140035539473e-03 -5.9847028460717306e-03  -1.3431910241833132e-03 6.5182998502975242e-03 -9.9511688798961644e-03  -5.7756130964965334e-04 7.6753950432729848e-03 -1.2450734554922958e-02  1.2007720996938363e-04 7.5702388937876940e-03 -1.2161870579134180e-02  7.4572327556280145e-05 7.2076259411292158e-03 -1.1312495777548316e-02  -2.3744611931183362e-04 7.3455970851067851e-03 -1.2029863895627737e-02  -2.7374125275948655e-04 7.6257877289678845e-03 -1.2915859535034600e-02  -2.2148503726502096e-04 7.8167291484337875e-03 -1.3588934491276038e-02  -1.3889598484424735e-04 7.8808946114833824e-03 -1.4109074992433652e-02  -1.7741706694541641e-04 7.9141449831735666e-03 -1.4225145020045396e-02  -3.7802692897855110e-04 8.2784219812033766e-03 -1.5140140549647234e-02  -3.9173667402955087e-04 8.8068788883612862e-03 -1.6535918724331095e-02  -2.2521130951092428e-04 9.1559548460992696e-03 -1.7507728324050207e-02  -6.7980760761964868e-05 9.3073670818609785e-03 -1.8159177725982974e-02  4.5314754402807537e-05 9.3666259938596733e-03 -1.8735321351215715e-02  1.7079451561107363e-03 1.0981352784873128e-02 -1.9597946350364482e-02  0.0000000000000000e+00 0.0000000000000000e+00 0.0000000000000000e+00  -2.0612937613164039e-05 1.7411037446097294e-06 -3.0545505234893405e-05  -3.9299256551906853e-05 5.5473022003946925e-06 -1.1495110044387876e-04  -5.6061211254872263e-05 1.1405131155266532e-05 -2.4937211728056106e-04  -7.0875570919254365e-05 1.9074511743713778e-05 -4.2823981612116676e-04  -8.3826162312792120e-05 2.8358999204841106e-05 -6.4614157555234215e-04  -9.5035722431780400e-05 3.9066532754109195e-05 -8.9797853800898243e-04  -1.0463191794477947e-04 5.1014794771836549e-05 -1.1790393503753852e-03  -1.1272763213234376e-04 6.4031980138083119e-05 -1.4849530483717821e-03  -1.1943257106460987e-04 7.7955108657441383e-05 -1.8116371024832216e-03  -1.2486464828551073e-04 9.2630064600073675e-05 -2.1553286868155703e-03  -1.2914795857240014e-04 1.0791384459767443e-04 -2.5126087792333792e-03  -1.3241049515238027e-04 1.2367613453252577e-04 -2.8804143650681280e-03  -1.3477966119895401e-04 1.3979983273656503e-04 -3.2560480449567723e-03  -1.3638468386469632e-04 1.5618139838125371e-04 -3.6371628570882604e-03  -1.3736536750539154e-04 1.7273276631675984e-04 -4.0217843166473477e-03  -1.3787227226930992e-04 1.8938400798979810e-04 -4.4083528817433866e-03  -1.3806216381739519e-04 2.0608467663084300e-04 -4.7957458456313442e-03  -1.3809648645067164e-04 2.2280618344175265e-04 -5.1832938051588522e-03  0.0000000000000000e+00 0.0000000000000000e+00 0.0000000000000000e+00  -1.9449447883792912e-05 2.8573903667455766e-06 -3.0226020942768063e-05  -3.8862662231095680e-05 6.5590737247959717e-06 -1.1449026783270424e-04  -5.6310542720785496e-05 1.2305811050930545e-05 -2.4885372612498772e-04  -7.1749195457954367e-05 1.9862646265474370e-05 -4.2766928381141842e-04  -8.5262591537676953e-05 2.9041586160268644e-05 -6.4552341555458408e-04  -9.6973599858255429e-05 3.9652194903436149e-05 -8.9731784264070159e-04  -1.0701420957179586e-04 5.1510755147588049e-05 -1.1783420658978332e-03  -1.1550136181091134e-04 6.4444194322087469e-05 -1.4842245674239229e-03  -1.2254598226525644e-04 7.8290163197270989e-05 -1.8108818425619125e-03  -1.2826777963252694e-04 9.2895197010923835e-05 -2.1545507649016783e-03  -1.3279347963304368e-04 1.0811658572221938e-04 -2.5118120190157755e-03  -1.3625416610539809e-04 1.2382406189546705e-04 -2.8796021761253905e-03  -1.3878119226844900e-04 1.3990023278687592e-04 -3.2552234365781454e-03  -1.4050674233021169e-04 1.5624209515078204e-04 -3.6363282845625609e-03  -1.4157348930314754e-04 1.7276252823495553e-04 -4.0209417098817160e-03  -1.4213603318995741e-04 1.8939208416430826e-04 -4.4075034958980493e-03  -1.4235580657979684e-04 2.0608043177269773e-04 -4.7948898042675060e-03  -1.4239923210706708e-04 2.2279750815696779e-04 -5.1824296752498817e-03  0.0000000000000000e+00 0.0000000000000000e+00 0.0000000000000000e+00  -6.9801795437833926e-04 -9.8616918433610851e-04 -1.2697575864183876e-03  -1.1966018210972989e-03 -2.5379793582996999e-03 -3.7566785200057150e-03  -1.4975011313889963e-03 -4.7551496520952261e-03 -7.5762911452958107e-03  -1.2349097918917004e-03 -7.0384300890572928e-03 -1.1588363004007505e-02  -4.2815253779660115e-04 -8.3824885951092089e-03 -1.3700975933315629e-02  1.3677757012850201e-04 -8.3622349925647505e-03 -1.3067929100227015e-02  -2.3844501113267890e-05 -7.9244242062820811e-03 -1.2344484821017982e-02  -2.7868737177597167e-04 -7.9883687053063489e-03 -1.3249035547078989e-02  -2.9541297281505046e-04 -8.2488838315358057e-03 -1.4093212464827792e-02  -2.5831999160869378e-04 -8.4338741420783778e-03 -1.4741464255175035e-02  -1.6133881541539975e-04 -8.5170527712747565e-03 -1.5294109762083877e-02  -2.1677496038299249e-04 -8.4888753734159491e-03 -1.5455064541309561e-02  -4.0836746715181330e-04 -8.7157336757605532e-03 -1.6385407251901535e-02  -4.3083184878025627e-04 -9.2116253252786003e-03 -1.7779183165740450e-02  -3.1640519474492588e-04 -9.6587911715402420e-03 -1.8842240558787100e-02  -1.5760796039657605e-04 -9.9689207550852019e-03 -1.9683020622017430e-02  1.0896678519685442e-04 -1.0338023667168914e-02 -2.0296305740348568e-02  1.1312677930735366e-03 -1.1814898219531210e-02 -2.0194329295511727e-02  0.0000000000000000e+00 0.0000000000000000e+00 0.0000000000000000e+00  -1.0737724404606406e-03 -1.2865490351766406e-03 -2.5992765639977601e-03  -1.8696930625121263e-03 -3.4091817790013594e-03 -7.4289716279261836e-03  -2.3696842943379732e-03 -6.4526447553976667e-03 -1.4752175012700821e-02  -1.9899612966183529e-03 -9.6697803830845374e-03 -2.2453380914914219e-02  -7.0221785537456912e-04 -1.1702626542216574e-02 -2.6626077044847367e-02  2.8322393186640867e-04 -1.1856664520883959e-02 -2.5521346649743565e-02  6.8567417125144236e-05 -1.1280570087741528e-02 -2.3863640772361524e-02  -3.8222476166131184e-04 -1.1300554080414003e-02 -2.5138639565933370e-02  -4.0513965348065110e-04 -1.1639247895178563e-02 -2.6456654010607272e-02  -3.4140592394720306e-04 -1.1904176315074793e-02 -2.7378315860603169e-02  -1.9113952487791977e-04 -1.2033097074607169e-02 -2.8118805107259639e-02  -2.4685704600211890e-04 -1.1993897759720160e-02 -2.8113690035002858e-02  -5.6134461417456285e-04 -1.2265028622715633e-02 -2.9462766686740673e-02  -6.1109923945799427e-04 -1.2925860171121887e-02 -3.1759820049312139e-02  -4.1681901012998726e-04 -1.3566692010783485e-02 -3.3496474763895473e-02  -1.3781439305873521e-04 -1.4038368164171372e-02 -3.4797651099160540e-02  3.0106677485845838e-04 -1.4641362115259640e-02 -3.5674636468207524e-02  1.0150667470666249e-03 -1.6923795836361673e-02 -3.5446425627630618e-02  0.0000000000000000e+00 0.0000000000000000e+00 0.0000000000000000e+00  -1.0233949872317590e-03 -1.2392923596244033e-03 -3.7483651821102314e-03  -1.8465802005014087e-03 -3.4468085307668818e-03 -1.0440828996978731e-02  -2.4340647777662669e-03 -6.6418711541485799e-03 -2.0442511113181749e-02  -2.1610458806515238e-03 -1.0099784795293960e-02 -3.0989225650599236e-02  -8.6807992276518664e-04 -1.2390379722578514e-02 -3.6990235655071625e-02  2.9896995592256902e-04 -1.2683087600337300e-02 -3.5996848646072013e-02  1.6201189328260215e-04 -1.2097406362673195e-02 -3.3774502564732238e-02  -4.0284072891145069e-04 -1.2081190612739420e-02 -3.5129734762882205e-02  -4.3540028300594784e-04 -1.2421569690474388e-02 -3.6783040398685490e-02  -3.6205285378292763e-04 -1.2708340021242388e-02 -3.7927083726928650e-02  -2.2113133138473430e-04 -1.2857799649096535e-02 -3.8826060457617370e-02  -2.1467561835304693e-04 -1.2811295174435302e-02 -3.8787110619060122e-02  -5.5485840507900710e-04 -1.3070311090570438e-02 -4.0387219330506215e-02  -6.4311697715336658e-04 -1.3752822922870861e-02 -4.3310538962756946e-02  -4.2244593430855833e-04 -1.4446070400312400e-02 -4.5616374206088231e-02  -9.5970803355400233e-05 -1.4987558860259072e-02 -4.7345662425055279e-02  5.3853235734753209e-04 -1.5634117450363673e-02 -4.8607739581044695e-02  1.1314462276417264e-03 -1.8214397129014067e-02 -4.9229350935988146e-02  0.0000000000000000e+00 0.0000000000000000e+00 0.0000000000000000e+00  -4.3257380850384526e-04 6.7966130743316727e-04 -3.2925116273636586e-03  -8.4770132604520046e-04 1.7832526080237749e-03 -9.8312827102099414e-03  -1.1354144479974366e-03 3.2775112773216078e-03 -1.9903299492053526e-02  -1.0195362296558270e-03 4.7130385849819450e-03 -3.0707425141298390e-02  -4.2416216503737695e-04 5.4256263482516873e-03 -3.6731394367584255e-02  1.0282762075915780e-04 5.3031657615466767e-03 -3.5542595946653502e-02  8.4955309100617649e-05 5.0686603539425289e-03 -3.3266891903514013e-02  -9.8914980464228180e-05 5.1837255946969724e-03 -3.4626506826544279e-02  -1.4322294173557836e-04 5.3750027726924372e-03 -3.6333154558012122e-02  -1.2845005141147103e-04 5.4975904009481151e-03 -3.7535904841125525e-02  -5.1909518142013616e-05 5.5364232528259888e-03 -3.8197100933168485e-02  -7.2182042382885783e-05 5.5793641915498123e-03 -3.8189522258319737e-02  -1.7831776501154664e-04 5.8624538398457920e-03 -4.0276409804773261e-02  -1.5196175421117988e-04 6.2321191221307451e-03 -4.3342149037780456e-02  6.2799841599633651e-06 6.4555619624052530e-03 -4.5267964422267215e-02  2.4881674314408984e-04 6.5395638761109199e-03 -4.6260274686847284e-02  7.5230259518901054e-04 6.7070893723082791e-03 -4.6746094974831558e-02  1.4658024306545678e-03 7.6135744906428533e-03 -4.6166049087742460e-02  0.0000000000000000e+00 0.0000000000000000e+00 0.0000000000000000e+00  -4.5377692297753156e-04 5.9994269413404246e-04 -1.7574791516456612e-03  -8.6425494756654363e-04 1.5582836827585345e-03 -5.9610030537963644e-03  -1.1616187894494259e-03 2.8764130193032794e-03 -1.2897966984990650e-02  -1.0626574203604403e-03 4.1607987252928564e-03 -2.0735724750730742e-02  -4.7135932986335969e-04 4.8306302691650147e-03 -2.5363212573828588e-02  9.5665211618519338e-05 4.7661804501687565e-03 -2.4515165250400796e-02  1.0497290325432509e-04 4.5704858257176427e-03 -2.2682322116744053e-02  -1.0924505318427667e-04 4.6616736543026067e-03 -2.3771613738536850e-02  -1.5750088052408104e-04 4.8308757378743780e-03 -2.5163254083663839e-02  -1.3468950954655329e-04 4.9439162207071301e-03 -2.6144750826530408e-02  -6.4084689178194539e-05 4.9833288003438203e-03 -2.6762481255007818e-02  -7.6557683238009483e-05 5.0237021503521974e-03 -2.6710754604458663e-02  -1.9885440622566733e-04 5.2675573125272809e-03 -2.8226680919563679e-02  -1.9097678670213341e-04 5.5947370580700312e-03 -3.0597547274840535e-02  -3.7175010561229811e-05 5.8007175563122449e-03 -3.2127762769944626e-02  1.6020659859150476e-04 5.8742007304858068e-03 -3.2995884661875974e-02  4.8331297286325513e-04 5.9886804914912111e-03 -3.3627081952544907e-02  1.3694897990730542e-03 6.9533610131538781e-03 -3.4062415692637821e-02  0.0000000000000000e+00 0.0000000000000000e+00 0.0000000000000000e+00  -2.9768298559575243e-04 3.5766802825873927e-04 -5.4099747298614860e-04  -5.6363398054243242e-04 9.3851720675707342e-04 -2.3068923333354877e-03  -7.6146144172783883e-04 1.7597773615401844e-03 -5.4801930920930445e-03  -7.0852504762339665e-04 2.5791458154797615e-03 -9.2988287569096429e-03  -3.3719647618725808e-04 3.0283739650275579e-03 -1.1741367825218400e-02  3.7911820593228476e-05 3.0114281839150043e-03 -1.1440184038604626e-02  5.6415803270259148e-05 2.8940677993891041e-03 -1.0560228735940654e-02  -9.3358102910670121e-05 2.9515652826688737e-03 -1.1257442897718517e-02  -1.2895312142503182e-04 3.0635431074510617e-03 -1.2143309363276931e-02  -1.1104743907348513e-04 3.1432016021237445e-03 -1.2808291901030571e-02  -6.9492105483024325e-05 3.1762908066924936e-03 -1.3326117428642535e-02  -7.5190921646478364e-05 3.2046482733880765e-03 -1.3422955053243094e-02  -1.5924329166440063e-04 3.3582192095649925e-03 -1.4295120294764360e-02  -1.6322942563167574e-04 3.5702792951975266e-03 -1.5662976508011423e-02  -6.8092812147305012e-05 3.7118504305041207e-03 -1.6619608123528650e-02  4.0765456876509471e-05 3.7719396783439927e-03 -1.7263885681984788e-02  1.4637632483212784e-04 3.8125326798605949e-03 -1.7839836480940868e-02  1.2135420371441495e-03 4.6550720968129089e-03 -1.8728569584080465e-02  0.0000000000000000e+00 0.0000000000000000e+00 0.0000000000000000e+00  -9.7057186352576836e-06 1.6202392491455392e-06 -2.9688329919028787e-05  -1.9070580550953999e-05 5.3889131936006311e-06 -1.1416498367046758e-04  -2.7402239985267477e-05 1.1184510190260397e-05 -2.4866685609377110e-04  -3.4767550216786223e-05 1.8798844446694928e-05 -4.2761699111371190e-04  -4.1209391856135896e-05 2.8032560739354362e-05 -6.4559749034547346e-04  -4.6787695480704546e-05 3.8694682547720741e-05 -8.9750812383254045e-04  -5.1566165204243542e-05 5.0602942334229990e-05 -1.1786373746093210e-03  -5.5601522271467100e-05 6.3584730782387870e-05 -1.4846146850121473e-03  -5.8947890173533406e-05 7.7476637934678703e-05 -1.8113575329331113e-03  -6.1663161700488390e-05 9.2124482505371948e-05 -2.1551027969428723e-03  -6.3808400722660183e-05 1.0738510838050902e-04 -2.5124312263499738e-03  -6.5446700040609407e-05 1.2312791879307298e-04 -2.8802796520949027e-03  -6.6641134050938753e-05 1.3923536719577588e-04 -3.2559506548951516e-03  -6.7455295994599216e-05 1.5560366350924254e-04 -3.6370971204483936e-03  -6.7957568994227955e-05 1.7214462512143153e-04 -4.0217441292070364e-03  -6.8221763171507756e-05 1.8878792469472923e-04 -4.4083317186116673e-03  -6.8324742185317874e-05 2.0548248532545026e-04 -4.7957368381546031e-03  -6.8344321385613700e-05 2.2219802251861615e-04 -5.1832871219839264e-03  0.0000000000000000e+00 0.0000000000000000e+00 0.0000000000000000e+00  -9.8434716693918903e-06 2.4324222322802315e-06 -2.9200443519676848e-05  -1.9878954760728101e-05 6.0562383068689850e-06 -1.1362658156546424e-04  -2.8751529906488958e-05 1.1773693277727936e-05 -2.4808065884095236e-04  -3.6604971111402647e-05 1.9315403520211420e-05 -4.2698522858905627e-04  -4.3482144527517363e-05 2.8481086740022239e-05 -6.4492420280044111e-04  -4.9444404923975226e-05 3.9080353801859255e-05 -8.9679824963317977e-04  -5.4558243883786405e-05 5.0930456470413120e-05 -1.1778963962963830e-03  -5.8883282105665263e-05 6.3858118302971624e-05 -1.4838475989523081e-03  -6.2475766122625735e-05 7.7700092856958428e-05 -1.8105685904122324e-03  -6.5395959496466336e-05 9.2302564496088665e-05 -2.1542959120405833e-03  -6.7707838697483486e-05 1.0752258269729397e-04 -2.5116099749390441e-03  -6.9477730908516354e-05 1.2322962511099171e-04 -2.8794471471577524e-03  -7.0772308435026224e-05 1.3930606118898835e-04 -3.2551095538495881e-03  -7.1658760983060770e-05 1.5564834533358197e-04 -3.6362496377154584e-03  -7.2209376569092111e-05 1.7216880462143295e-04 -4.0208919921102763e-03  -7.2502500993247733e-05 1.8879744811384317e-04 -4.4074759251494216e-03  -7.2619977408299984e-05 2.0548319472802245e-04 -4.7948773430245830e-03  -7.2644908410996427e-05 2.2219473340976412e-04 -5.1824240845761201e-03  0.0000000000000000e+00 0.0000000000000000e+00 0.0000000000000000e+00  -3.3958366003885578e-04 -3.5068529779672147e-04 -1.0849264108269338e-03  -5.9936551340252246e-04 -8.9068925021228628e-04 -3.2915939651003939e-03  -7.7980807132168261e-04 -1.6700330223780992e-03 -6.7137816738378304e-03  -6.9172198593459987e-04 -2.4758933755969119e-03 -1.0307056872966808e-02  -2.9786264247445626e-04 -2.9579631791460228e-03 -1.2132893107056621e-02  4.3829420389023387e-05 -2.9582945665280734e-03 -1.1415374336641693e-02  1.3355167793244531e-05 -2.7955504906545209e-03 -1.0715763740475160e-02  -1.3508128385119047e-04 -2.7995758767123866e-03 -1.1630757088535374e-02  -1.6491301524846049e-04 -2.8759859849353804e-03 -1.2444557289420328e-02  -1.4919366631962867e-04 -2.9290406233380556e-03 -1.3052088841646820e-02  -9.7322331815593327e-05 -2.9455002402802356e-03 -1.3583756946174440e-02  -1.0432984363345335e-04 -2.9188448108294815e-03 -1.3732329659248990e-02  -1.9590015740792195e-04 -2.9778844999576917e-03 -1.4622115763880297e-02  -2.1246804656292834e-04 -3.1349495024539284e-03 -1.5938848165422525e-02  -1.4145441503125091e-04 -3.2822060507867652e-03 -1.6914790877656953e-02  -3.0506579429883247e-05 -3.3789286209063253e-03 -1.7682506032054932e-02  1.1527461931066267e-04 -3.5402471553196493e-03 -1.8200191769447309e-02  8.8312414753009990e-04 -4.1770932861669068e-03 -1.7559220976824101e-02  0.0000000000000000e+00 0.0000000000000000e+00 0.0000000000000000e+00  -4.7581604454988841e-04 -5.5576185766205454e-04 -2.4766747777379421e-03  -8.7439497778388350e-04 -1.4988415268200720e-03 -7.1891288483111066e-03  -1.1540642573790341e-03 -2.8661072294475965e-03 -1.4346570940599868e-02  -1.0394904619228048e-03 -4.3269244790284864e-03 -2.1893183736346307e-02  -4.4899617455449581e-04 -5.2690166990783261e-03 -2.5961330071510195e-02  9.2968155493869267e-05 -5.3585843747773901e-03 -2.4786748276861816e-02  6.1806812605107658e-05 -5.0924422919122391e-03 -2.3080779327933565e-02  -1.7597943327209067e-04 -5.0796496125993249e-03 -2.4357290924372124e-02  -2.2220252071766938e-04 -5.2151191107844509e-03 -2.5685998317837213e-02  -1.9849556904934