<?xml version="1.0"?>
<VTKFile type="UnstructuredGrid"  version="0.1"  >
<UnstructuredGrid>
<Piece  NumberOfPoints="760" NumberOfCells="3024">
<Points>
<DataArray  type="Float64"  NumberOfComponents="3"  format="ascii">0 0 0  0.05555555555555555 0 0  0.1111111111111111 0 0  0.1666666666666667 0 0  0.2222222222222222 0 0  0.2777777777777778 0 0  0.3333333333333333 0 0  0.3888888888888889 0 0  0.4444444444444444 0 0  0.5 0 0  0.5555555555555556 0 0  0.6111111111111112 0 0  0.6666666666666666 0 0  0.7222222222222222 0 0  0.7777777777777778 0 0  0.8333333333333334 0 0  0.8888888888888888 0 0  0.9444444444444444 0 0  1 0 0  0 0.01428571428571429 0  0.05555555555555555 0.01428571428571429 0  0.1111111111111111 0.01428571428571429 0  0.1666666666666667 0.01428571428571429 0  0.2222222222222222 0.01428571428571429 0  0.2777777777777778 0.01428571428571429 0  0.3333333333333333 0.01428571428571429 0  0.3888888888888889 0.01428571428571429 0  0.4444444444444444 0.01428571428571429 0  0.5 0.01428571428571429 0  0.5555555555555556 0.01428571428571429 0  0.6111111111111112 0.01428571428571429 0  0.6666666666666666 0.01428571428571429 0  0.7222222222222222 0.01428571428571429 0  0.7777777777777778 0.01428571428571429 0  0.8333333333333334 0.01428571428571429 0  0.8888888888888888 0.01428571428571429 0  0.9444444444444444 0.01428571428571429 0  1 0.01428571428571429 0  0 0.02857142857142857 0  0.05555555555555555 0.02857142857142857 0  0.1111111111111111 0.02857142857142857 0  0.1666666666666667 0.02857142857142857 0  0.2222222222222222 0.02857142857142857 0  0.2777777777777778 0.02857142857142857 0  0.3333333333333333 0.02857142857142857 0  0.3888888888888889 0.02857142857142857 0  0.4444444444444444 0.02857142857142857 0  0.5 0.02857142857142857 0  0.5555555555555556 0.02857142857142857 0  0.6111111111111112 0.02857142857142857 0  0.6666666666666666 0.02857142857142857 0  0.7222222222222222 0.02857142857142857 0  0.7777777777777778 0.02857142857142857 0  0.8333333333333334 0.02857142857142857 0  0.8888888888888888 0.02857142857142857 0  0.9444444444444444 0.02857142857142857 0  1 0.02857142857142857 0  0 0.04285714285714286 0  0.05555555555555555 0.04285714285714286 0  0.1111111111111111 0.04285714285714286 0  0.1666666666666667 0.04285714285714286 0  0.2222222222222222 0.04285714285714286 0  0.2777777777777778 0.04285714285714286 0  0.3333333333333333 0.04285714285714286 0  0.3888888888888889 0.04285714285714286 0  0.4444444444444444 0.04285714285714286 0  0.5 0.04285714285714286 0  0.5555555555555556 0.04285714285714286 0  0.6111111111111112 0.04285714285714286 0  0.6666666666666666 0.04285714285714286 0  0.7222222222222222 0.04285714285714286 0  0.7777777777777778 0.04285714285714286 0  0.8333333333333334 0.04285714285714286 0  0.8888888888888888 0.04285714285714286 0  0.9444444444444444 0.04285714285714286 0  1 0.04285714285714286 0  0 0.05714285714285715 0  0.05555555555555555 0.05714285714285715 0  0.1111111111111111 0.05714285714285715 0  0.1666666666666667 0.05714285714285715 0  0.2222222222222222 0.05714285714285715 0  0.2777777777777778 0.05714285714285715 0  0.3333333333333333 0.05714285714285715 0  0.3888888888888889 0.05714285714285715 0  0.4444444444444444 0.05714285714285715 0  0.5 0.05714285714285715 0  0.5555555555555556 0.05714285714285715 0  0.6111111111111112 0.05714285714285715 0  0.6666666666666666 0.05714285714285715 0  0.7222222222222222 0.05714285714285715 0  0.7777777777777778 0.05714285714285715 0  0.8333333333333334 0.05714285714285715 0  0.8888888888888888 0.05714285714285715 0  0.9444444444444444 0.05714285714285715 0  1 0.05714285714285715 0  0 0.07142857142857142 0  0.05555555555555555 0.07142857142857142 0  0.1111111111111111 0.07142857142857142 0  0.1666666666666667 0.07142857142857142 0  0.2222222222222222 0.07142857142857142 0  0.2777777777777778 0.07142857142857142 0  0.3333333333333333 0.07142857142857142 0  0.3888888888888889 0.07142857142857142 0  0.4444444444444444 0.07142857142857142 0  0.5 0.07142857142857142 0  0.5555555555555556 0.07142857142857142 0  0.6111111111111112 0.07142857142857142 0  0.6666666666666666 0.07142857142857142 0  0.7222222222222222 0.07142857142857142 0  0.7777777777777778 0.07142857142857142 0  0.8333333333333334 0.07142857142857142 0  0.8888888888888888 0.07142857142857142 0  0.9444444444444444 0.07142857142857142 0  1 0.07142857142857142 0  0 0.08571428571428573 0  0.05555555555555555 0.08571428571428573 0  0.1111111111111111 0.08571428571428573 0  0.1666666666666667 0.08571428571428573 0  0.2222222222222222 0.08571428571428573 0  0.2777777777777778 0.08571428571428573 0  0.3333333333333333 0.08571428571428573 0  0.3888888888888889 0.08571428571428573 0  0.4444444444444444 0.08571428571428573 0  0.5 0.08571428571428573 0  0.5555555555555556 0.08571428571428573 0  0.6111111111111112 0.08571428571428573 0  0.6666666666666666 0.08571428571428573 0  0.7222222222222222 0.08571428571428573 0  0.7777777777777778 0.08571428571428573 0  0.8333333333333334 0.08571428571428573 0  0.8888888888888888 0.08571428571428573 0  0.9444444444444444 0.08571428571428573 0  1 0.08571428571428573 0  0 0.1 0  0.05555555555555555 0.1 0  0.1111111111111111 0.1 0  0.1666666666666667 0.1 0  0.2222222222222222 0.1 0  0.2777777777777778 0.1 0  0.3333333333333333 0.1 0  0.3888888888888889 0.1 0  0.4444444444444444 0.1 0  0.5 0.1 0  0.5555555555555556 0.1 0  0.6111111111111112 0.1 0  0.6666666666666666 0.1 0  0.7222222222222222 0.1 0  0.7777777777777778 0.1 0  0.8333333333333334 0.1 0  0.8888888888888888 0.1 0  0.9444444444444444 0.1 0  1 0.1 0  0 0 0.01  0.05555555555555555 0 0.01  0.1111111111111111 0 0.01  0.1666666666666667 0 0.01  0.2222222222222222 0 0.01  0.2777777777777778 0 0.01  0.3333333333333333 0 0.01  0.3888888888888889 0 0.01  0.4444444444444444 0 0.01  0.5 0 0.01  0.5555555555555556 0 0.01  0.6111111111111112 0 0.01  0.6666666666666666 0 0.01  0.7222222222222222 0 0.01  0.7777777777777778 0 0.01  0.8333333333333334 0 0.01  0.8888888888888888 0 0.01  0.9444444444444444 0 0.01  1 0 0.01  0 0.01428571428571429 0.01  0.05555555555555555 0.01428571428571429 0.01  0.1111111111111111 0.01428571428571429 0.01  0.1666666666666667 0.01428571428571429 0.01  0.2222222222222222 0.01428571428571429 0.01  0.2777777777777778 0.01428571428571429 0.01  0.3333333333333333 0.01428571428571429 0.01  0.3888888888888889 0.01428571428571429 0.01  0.4444444444444444 0.01428571428571429 0.01  0.5 0.01428571428571429 0.01  0.5555555555555556 0.01428571428571429 0.01  0.6111111111111112 0.01428571428571429 0.01  0.6666666666666666 0.01428571428571429 0.01  0.7222222222222222 0.01428571428571429 0.01  0.7777777777777778 0.01428571428571429 0.01  0.8333333333333334 0.01428571428571429 0.01  0.8888888888888888 0.01428571428571429 0.01  0.9444444444444444 0.01428571428571429 0.01  1 0.01428571428571429 0.01  0 0.02857142857142857 0.01  0.05555555555555555 0.02857142857142857 0.01  0.1111111111111111 0.02857142857142857 0.01  0.1666666666666667 0.02857142857142857 0.01  0.2222222222222222 0.02857142857142857 0.01  0.2777777777777778 0.02857142857142857 0.01  0.3333333333333333 0.02857142857142857 0.01  0.3888888888888889 0.02857142857142857 0.01  0.4444444444444444 0.02857142857142857 0.01  0.5 0.02857142857142857 0.01  0.5555555555555556 0.02857142857142857 0.01  0.6111111111111112 0.02857142857142857 0.01  0.6666666666666666 0.02857142857142857 0.01  0.7222222222222222 0.02857142857142857 0.01  0.7777777777777778 0.02857142857142857 0.01  0.8333333333333334 0.02857142857142857 0.01  0.8888888888888888 0.02857142857142857 0.01  0.9444444444444444 0.02857142857142857 0.01  1 0.02857142857142857 0.01  0 0.04285714285714286 0.01  0.05555555555555555 0.04285714285714286 0.01  0.1111111111111111 0.04285714285714286 0.01  0.1666666666666667 0.04285714285714286 0.01  0.2222222222222222 0.04285714285714286 0.01  0.2777777777777778 0.04285714285714286 0.01  0.3333333333333333 0.04285714285714286 0.01  0.3888888888888889 0.04285714285714286 0.01  0.4444444444444444 0.04285714285714286 0.01  0.5 0.04285714285714286 0.01  0.5555555555555556 0.04285714285714286 0.01  0.6111111111111112 0.04285714285714286 0.01  0.6666666666666666 0.04285714285714286 0.01  0.7222222222222222 0.04285714285714286 0.01  0.7777777777777778 0.04285714285714286 0.01  0.8333333333333334 0.04285714285714286 0.01  0.8888888888888888 0.04285714285714286 0.01  0.9444444444444444 0.04285714285714286 0.01  1 0.04285714285714286 0.01  0 0.05714285714285715 0.01  0.05555555555555555 0.05714285714285715 0.01  0.1111111111111111 0.05714285714285715 0.01  0.1666666666666667 0.05714285714285715 0.01  0.2222222222222222 0.05714285714285715 0.01  0.2777777777777778 0.05714285714285715 0.01  0.3333333333333333 0.05714285714285715 0.01  0.3888888888888889 0.05714285714285715 0.01  0.4444444444444444 0.05714285714285715 0.01  0.5 0.05714285714285715 0.01  0.5555555555555556 0.05714285714285715 0.01  0.6111111111111112 0.05714285714285715 0.01  0.6666666666666666 0.05714285714285715 0.01  0.7222222222222222 0.05714285714285715 0.01  0.7777777777777778 0.05714285714285715 0.01  0.8333333333333334 0.05714285714285715 0.01  0.8888888888888888 0.05714285714285715 0.01  0.9444444444444444 0.05714285714285715 0.01  1 0.05714285714285715 0.01  0 0.07142857142857142 0.01  0.05555555555555555 0.07142857142857142 0.01  0.1111111111111111 0.07142857142857142 0.01  0.1666666666666667 0.07142857142857142 0.01  0.2222222222222222 0.07142857142857142 0.01  0.2777777777777778 0.07142857142857142 0.01  0.3333333333333333 0.07142857142857142 0.01  0.3888888888888889 0.07142857142857142 0.01  0.4444444444444444 0.07142857142857142 0.01  0.5 0.07142857142857142 0.01  0.5555555555555556 0.07142857142857142 0.01  0.6111111111111112 0.07142857142857142 0.01  0.6666666666666666 0.07142857142857142 0.01  0.7222222222222222 0.07142857142857142 0.01  0.7777777777777778 0.07142857142857142 0.01  0.8333333333333334 0.07142857142857142 0.01  0.8888888888888888 0.07142857142857142 0.01  
[...]
<PointData  Vectors="f_36"> 
<DataArray  type="Float64"  Name="f_36"  NumberOfComponents="3" format="ascii">0.0000000000000000e+00 0.0000000000000000e+00 0.0000000000000000e+00  -2.8675045033474127e-03 6.1488808191152416e-03 -1.6181487022826860e-02  -1.7530343916238628e-03 1.0016427013436019e-02 -2.8763409711378096e-02  -5.7303581799938595e-04 1.1382267920333942e-02 -3.2352157361343586e-02  -2.4468195139222982e-04 1.1805516220721303e-02 -3.3616559477262345e-02  -1.4638365691497975e-04 1.1937786672446622e-02 -3.4188020823540680e-02  -1.3257026079226058e-04 1.1994883845400808e-02 -3.4616444578385641e-02  -1.3697186928485159e-04 1.2032708018743355e-02 -3.5037432498755038e-02  -1.4508990862868840e-04 1.2066584052415175e-02 -3.5479051821570518e-02  -1.5278961329280778e-04 1.2100500262836579e-02 -3.5945388338447931e-02  -1.5930486042287084e-04 1.2135291811628262e-02 -3.6433758105766725e-02  -1.6460160017386986e-04 1.2171391475775105e-02 -3.6940087557029558e-02  -1.6912695945306584e-04 1.2209550562110379e-02 -3.7463230906685768e-02  -1.7407573526523226e-04 1.2254966685973319e-02 -3.7997762293743263e-02  -1.8698056796401236e-04 1.2322470062889690e-02 -3.8586004321743993e-02  -2.4289688795855398e-04 1.2456584473224843e-02 -3.9215546405887029e-02  -6.3898184329064689e-04 1.2949993385544757e-02 -4.0515587129151785e-02  -1.8183652322449923e-04 1.3830447303729867e-02 -4.4226039931109039e-02  8.3504101778449904e-04 1.4629894039271686e-02 -4.4096288464075990e-02  0.0000000000000000e+00 0.0000000000000000e+00 0.0000000000000000e+00  -2.8894674429582861e-03 5.2591652149932520e-03 -1.0566640262120043e-02  -1.9055587614023603e-03 8.9539591055582939e-03 -1.9776571240640011e-02  -5.9043855803729540e-04 1.0368285165707133e-02 -2.2161212059743030e-02  -2.4296866829213708e-04 1.0812920184399622e-02 -2.2988855838207697e-02  -1.4395974375505817e-04 1.0961792483104528e-02 -2.3447002365210759e-02  -1.2863333401046955e-04 1.1028704214432774e-02 -2.3824665705519943e-02  -1.3314439898679391e-04 1.1076645500687489e-02 -2.4218285615989515e-02  -1.4109338753424906e-04 1.1120935059353770e-02 -2.4636188173056253e-02  -1.4877237551776842e-04 1.1165899193286526e-02 -2.5079736022116744e-02  -1.5528128808646073e-04 1.1212256450404776e-02 -2.5544963511322464e-02  -1.6055585346249672e-04 1.1260210577779716e-02 -2.6027695083267889e-02  -1.6513729195611376e-04 1.1310160473528523e-02 -2.6525019293832566e-02  -1.6965097237519073e-04 1.1365234912502502e-02 -2.7030660359193170e-02  -1.8330114905692658e-04 1.1438839668243900e-02 -2.7559268580798157e-02  -2.2687716277843337e-04 1.1563683445576504e-02 -2.8105024242838488e-02  -5.7461231268073477e-04 1.1997966349810405e-02 -2.8936235509924028e-02  -4.1158695961245089e-04 1.2850422727110726e-02 -3.2028450247155206e-02  9.6454137950063910e-04 1.3987348005556238e-02 -3.2617170840769170e-02  0.0000000000000000e+00 0.0000000000000000e+00 0.0000000000000000e+00  -1.8258526439753377e-03 3.3380586658320241e-03 -4.9006352119451068e-03  -1.2873102798395006e-03 5.8983938545764131e-03 -9.6700028484636956e-03  -3.9508646778335107e-04 6.9116050790261870e-03 -1.0803706278958406e-02  -1.7061616147498682e-04 7.2202441596321658e-03 -1.1207287672861554e-02  -1.1594819316216161e-04 7.3346343498159128e-03 -1.1525099424188208e-02  -1.0814802620627037e-04 7.3951387571192994e-03 -1.1818032973707503e-02  -1.1406937876847518e-04 7.4455217802637010e-03 -1.2136565858074872e-02  -1.2130494008521164e-04 7.4954452063592985e-03 -1.2478395603365618e-02  -1.2807604313773630e-04 7.5473315015088275e-03 -1.2842314481301173e-02  -1.3370961807124298e-04 7.6013803461709249e-03 -1.3224382287020265e-02  -1.3823910605299510e-04 7.6573733342004818e-03 -1.3621054235448916e-02  -1.4192043536719086e-04 7.7152200192741049e-03 -1.4029025191065029e-02  -1.4526753673937739e-04 7.7752881622672647e-03 -1.4444574366867522e-02  -1.5374759534494921e-04 7.8449477408212270e-03 -1.4864433454997968e-02  -1.8235512890149330e-04 7.9382503603011457e-03 -1.5297039574706578e-02  -3.8365125059719988e-04 8.2264925216327094e-03 -1.5760652805385199e-02  -4.5170452112559362e-04 8.8491945574028074e-03 -1.7540912224734174e-02  1.2861469071535365e-03 1.0406305426344520e-02 -1.8747062247985658e-02  0.0000000000000000e+00 0.0000000000000000e+00 0.0000000000000000e+00  -1.7835484382552773e-05 2.0309685560765938e-06 -2.6910895844502196e-05  -3.3781434133457225e-05 6.7688771262289394e-06 -1.0037165924524359e-04  -4.7911635287050317e-05 1.4098964335858189e-05 -2.1647678785391533e-04  -6.0283963342868047e-05 2.3718333059601765e-05 -3.7009190977397552e-04  -7.1013827694152182e-05 3.5370896544818605e-05 -5.5640032237872720e-04  -8.0219202506066737e-05 4.8810039618458764e-05 -7.7091580024292851e-04  -8.8017717692039947e-05 6.3800530328062016e-05 -1.0094831176324869e-03  -9.4526765196475799e-05 8.0119289064981678e-05 -1.2682777025236004e-03  -9.9863565039249008e-05 9.7556475426048301e-05 -1.5438055419569388e-03  -1.0414515095485975e-04 1.1591660200826659e-04 -1.8329030979521838e-03  -1.0748834360230367e-04 1.3501969687821258e-04 -2.1327371705501474e-03  -1.1000972019180663e-04 1.5470249604952773e-04 -2.4408046869542868e-03  -1.1182558530929859e-04 1.7481965156904879e-04 -2.7549324131377127e-03  -1.1305193332839141e-04 1.9524498766792072e-04 -3.0732766003469542e-03  -1.1380439255794884e-04 2.1587268250591676e-04 -3.3943224635158732e-03  -1.1419802786186701e-04 2.3661873427171674e-04 -3.7168834840977335e-03  -1.1434702298155105e-04 2.5742243047947226e-04 -4.0400995444662821e-03  -1.1437303552628956e-04 2.7824659465303819e-04 -4.3634356172192676e-03  0.0000000000000000e+00 0.0000000000000000e+00 0.0000000000000000e+00  -1.7103956709251014e-05 2.9915043518866642e-06 -2.6626264533679950e-05  -3.3920128830877492e-05 7.6265921781543084e-06 -9.9948155302545210e-05  -4.8850009406822402e-05 1.4854930625309835e-05 -2.1598801456005693e-04  -6.1939528386725776e-05 2.4375309949650235e-05 -3.6954555410333216e-04  -7.3310237910820210e-05 3.5935661291518453e-05 -5.5580315169129028e-04  -8.3083222391698621e-05 4.9289500323836223e-05 -7.7027383102726689e-04  -9.1379176276635087e-05 6.4201591368723797e-05 -1.0088019596575437e-03  -9.8318787838353329e-05 8.0448847821633644e-05 -1.2675625701012488e-03  -1.0402285261967072e-04 9.7821426683692092e-05 -1.5430612391843866e-03  -1.0861227589602250e-04 1.1612383835255349e-04 -1.8321340039579208e-03  -1.1220805565620208e-04 1.3517610741683504e-04 -2.1319472240707580e-03  -1.1493125779997969e-04 1.5481496479633123e-04 -2.4399973710963496e-03  -1.1690299491413175e-04 1.7489505429155506e-04 -2.7541107368807215e-03  -1.1824438581558165e-04 1.9529018453536080e-04 -3.0724430833979810e-03  -1.1907652553863244e-04 2.1589450442928109e-04 -3.3934790756734220e-03  -1.1952039167220921e-04 2.3662385705725203e-04 -3.7160316255080835e-03  -1.1969598530647801e-04 2.5741753945463338e-04 -4.0392397530517503e-03  -1.1972971534301480e-04 2.7823783384638715e-04 -4.3625674445938499e-03  0.0000000000000000e+00 0.0000000000000000e+00 0.0000000000000000e+00  -1.8982353072623933e-03 -3.4563018770576623e-03 -6.8091384937168853e-03  -1.1083561099020009e-03 -6.3855188193214134e-03 -1.1209675188009798e-02  -3.6618427389560501e-04 -7.5971694049639530e-03 -1.2114632977466863e-02  -1.6545961225081525e-04 -7.9419540911816622e-03 -1.2545016310409298e-02  -1.1743235137515405e-04 -8.0504134807539603e-03 -1.2830068220377990e-02  -1.1691573413906095e-04 -8.0884100115640525e-03 -1.3129720506905061e-02  -1.2509672204822291e-04 -8.1106787964578334e-03 -1.3455643489939302e-02  -1.3400691807274098e-04 -8.1298325886859420e-03 -1.3808647981403164e-02  -1.4173991127703177e-04 -8.1490773770220085e-03 -1.4184749538699372e-02  -1.4808288861400414e-04 -8.1690888739583099e-03 -1.4579985349652444e-02  -1.5312846095056208e-04 -8.1899820222603968e-03 -1.4990363595120494e-02  -1.5724121053139025e-04 -8.2121380251149075e-03 -1.5413369921531420e-02  -1.6093804481822905e-04 -8.2369434078982551e-03 -1.5843674139620578e-02  -1.6947589186865864e-04 -8.2724810346792698e-03 -1.6293147383800697e-02  -1.9819906904803062e-04 -8.3334676259961098e-03 -1.6743542289031726e-02  -3.8328809076335844e-04 -8.5538351859455117e-03 -1.7388891703014001e-02  -2.2649794363645225e-04 -9.3895148610009735e-03 -1.8854030819375554e-02  8.4020079963758167e-04 -1.1142232124389083e-02 -1.8554342310694815e-02  0.0000000000000000e+00 0.0000000000000000e+00 0.0000000000000000e+00  -3.0050892145921490e-03 -4.3439645859819171e-03 -1.1988786348146895e-02  -1.8337695958575717e-03 -8.5252265201536340e-03 -2.1024141249746976e-02  -5.4857936474685001e-04 -1.0444808102220019e-02 -2.3168944228252709e-02  -2.3008213261233246e-04 -1.1030894027944211e-02 -2.3984780060106573e-02  -1.4569494971350446e-04 -1.1214714520912293e-02 -2.4411167473749905e-02  -1.4022456313306421e-04 -1.1272122162535227e-02 -2.4784098490169156e-02  -1.4865868471643381e-04 -1.1296064780532120e-02 -2.5172282177144789e-02  -1.5901089243877152e-04 -1.1311715007868621e-02 -2.5586968946512932e-02  -1.6814551890600697e-04 -1.1325518604871264e-02 -2.6027394635047510e-02  -1.7569670668626789e-04 -1.1339197543267969e-02 -2.6489738880802815e-02  -1.8169289692578658e-04 -1.1353254745204681e-02 -2.6969782926698330e-02  -1.8679190359279424e-04 -1.1368434130694596e-02 -2.7465023903525135e-02  -1.9127339568678685e-04 -1.1387060662816067e-02 -2.7971275823185232e-02  -2.0547251854275732e-04 -1.1420842982096658e-02 -2.8509108396361095e-02  -2.3710828034268245e-04 -1.1494319499707148e-02 -2.9087355576181150e-02  -5.0292917363965804e-04 -1.1756298383634551e-02 -2.9954059931697960e-02  -3.6628074484997767e-04 -1.2921331397442009e-02 -3.2694725092127015e-02  4.3912208914318005e-04 -1.5626740882312567e-02 -3.3107375204745541e-02  0.0000000000000000e+00 0.0000000000000000e+00 0.0000000000000000e+00  -3.1654985528025209e-03 -4.2508455280783194e-03 -1.5855990862168587e-02  -2.0754387455511657e-03 -8.8022354249642793e-03 -2.8537496829550285e-02  -5.5422088705155625e-04 -1.0983025956133435e-02 -3.2276786960070199e-02  -2.3182808248085131e-04 -1.1701285845588966e-02 -3.3581561989394958e-02  -1.4955783712117043e-04 -1.1928261615258577e-02 -3.4187602350726196e-02  -1.4558842386427049e-04 -1.1997093766187973e-02 -3.4617655657642458e-02  -1.5559313331260766e-04 -1.2019602771762412e-02 -3.5035059106533636e-02  -1.6667294149576674e-04 -1.2029732345196206e-02 -3.5469783095267861e-02  -1.7640402766150139e-04 -1.2036284493936431e-02 -3.5928499458736107e-02  -1.8438463940480612e-04 -1.2041837492410652e-02 -3.6408735520059118e-02  -1.9068445614027290e-04 -1.2047236650545617e-02 -3.6907024434897961e-02  -1.9579294140150669e-04 -1.2053245004057805e-02 -3.7420931885046235e-02  -1.9967024486141225e-04 -1.2062936123029793e-02 -3.7951115709883812e-02  -2.1097417798704741e-04 -1.2086238161607598e-02 -3.8518170691839243e-02  -2.2735042619289328e-04 -1.2157356034808900e-02 -3.9201091876920273e-02  -4.1528080065110783e-04 -1.2412303911749358e-02 -4.0248657369610648e-02  -2.4643194127075158e-04 -1.3589324438496935e-02 -4.3851982569667873e-02  4.8182395388447400e-04 -1.6498262974713775e-02 -4.5477772112519632e-02  0.0000000000000000e+00 0.0000000000000000e+00 0.0000000000000000e+00  -1.1467234580142512e-03 2.3716372860577398e-03 -1.5699484582453835e-02  -8.1179813877582012e-04 4.2304353986710539e-03 -2.8398536301009990e-02  -2.6248522833849093e-04 4.8629766635775902e-03 -3.2018081916399703e-02  -1.1265837437333260e-04 5.0411244220557715e-03 -3.3260029003457280e-02  -6.6664846485935014e-05 5.1054332214255631e-03 -3.3827967659679187e-02  -5.9589247387742129e-05 5.1351961164077895e-03 -3.4252631178590044e-02  -6.1654779729420776e-05 5.1579916379521301e-03 -3.4671705072203150e-02  -6.5358547859417344e-05 5.1792562181653861e-03 -3.5111364057603393e-02  -6.8900939957263833e-05 5.2010105825459757e-03 -3.5575750581160512e-02  -7.1920181796404308e-05 5.2234773244197574e-03 -3.6062078594595787e-02  -7.4299245847911217e-05 5.2467637164679386e-03 -3.6566264157171693e-02  -7.6712302314172333e-05 5.2710513307459728e-03 -3.7087110361677673e-02  -7.7558573835676152e-05 5.2976307298011251e-03 -3.7618636836414983e-02  -8.7595232012986870e-05 5.3325585650778233e-03 -3.8202403993076853e-02  -9.3850605645204213e-05 5.3825902138222546e-03 -3.8817247208027990e-02  -2.1015677285248435e-04 5.5760111285003463e-03 -4.0071831952970316e-02  1.0425760931844989e-04 6.1720683720581501e-03 -4.3798329578386891e-02  8.2909662496124007e-04 7.0488039398789526e-03 -4.3703663487515823e-02  0.0000000000000000e+00 0.0000000000000000e+00 0.0000000000000000e+00  -1.2955308670541674e-03 2.0778354887030634e-03 -1.0227772485263360e-02  -9.5125921769477787e-04 3.7027734142510440e-03 -1.9506190715919511e-02  -2.9276215320881457e-04 4.3342261853476418e-03 -2.1886040701499843e-02  -1.1637647454426774e-04 4.5218065507945000e-03 -2.2667693569752984e-02  -6.8806042307495836e-05 4.5894031581114455e-03 -2.3117462123946261e-02  -6.0026595673263547e-05 4.6208891480392323e-03 -2.3492205328582622e-02  -6.2218000217717831e-05 4.6445320320868460e-03 -2.3886224468886195e-02  -6.5877767287069174e-05 4.6665975619722654e-03 -2.4305190709724513e-02  -6.9509606340042778e-05 4.6891189364051790e-03 -2.4750076262826451e-02  -7.2594112171887193e-05 4.7123754035335377e-03 -2.5216727606645256e-02  -7.5080438123410536e-05 4.7364305615973405e-03 -2.5700911616632259e-02  -7.7434299884183896e-05 4.7614834047428143e-03 -2.6199611127673259e-02  -7.9027342835097863e-05 4.7884152943258197e-03 -2.6706256809750740e-02  -8.7123484920679375e-05 4.8236842862639734e-03 -2.7234302004551576e-02  -9.8286800463654426e-05 4.8727458159143157e-03 -2.7776816141602722e-02  -2.3179694305985635e-04 5.0325231012191872e-03 -2.8572628598205491e-02  -1.0763090525668823e-04 5.5148777092910613e-03 -3.1674527741002947e-02  8.1446439591357817e-04 6.4270587703004348e-03 -3.2379945715745741e-02  0.0000000000000000e+00 0.0000000000000000e+00 0.0000000000000000e+00  -8.8631663260217957e-04 1.2793395418706618e-03 -4.5068577143499034e-03  -6.8023167227101446e-04 2.2843115876459911e-03 -9.1466361830238527e-03  -2.0795067999790275e-04 2.7207728407791058e-03 -1.0178224648233669e-02  -8.2998844976009986e-05 2.8590548744312481e-03 -1.0502558155664013e-02  -5.6898392441856874e-05 2.9119013651503303e-03 -1.0800554145197752e-02  -5.1626679651586275e-05 2.9412355956635614e-03 -1.1088736946619141e-02  -5.4570775239503873e-05 2.9655141831435856e-03 -1.1407709042861749e-02  -5.7973082880523037e-05 2.9894825512408259e-03 -1.1751587428180672e-02  -6.1255868766791886e-05 3.0143010009908815e-03 -1.2118137893105068e-02  -6.3985615230270258e-05 3.0400931523265231e-03 -1.2503121796006171e-02  -6.6198209622053485e-05 3.0667616212206707e-03 -1.2902862172344083e-02  -6.8051071804097678e-05 3.0943604002095270e-03 -1.3313876540354895e-02  -6.9648590973729434e-05 3.1230266847572423e-03 -1.3731987892218888e-02  -7.4234396451942572e-05 3.1569988272171054e-03 -1.4151868018224992e-02  -8.5386184040387705e-05 3.2006081623338245e-03 -1.4579532852481938e-02  -1.7498954241109462e-04 3.3100601592845539e-03 -1.5009756227086687e-02  -2.0171535246905182e-04 3.5800295715145394e-03 -1.6769211569134343e-02  8.8273788863889064e-04 4.3525610655530539e-03 -1.8014756002598081e-02  0.0000000000000000e+00 0.0000000000000000e+00 0.0000000000000000e+00  -8.3376119669680875e-06 1.9158762478824657e-06 -2.6167352181859192e-05  -1.6283188940802440e-05 6.6089229445109503e-06 -9.9698578901386836e-05  -2.3260835714338214e-05 1.3873917113672842e-05 -2.1587976288345810e-04  -2.9368922337998529e-05 2.3437274044323248e-05 -3.6956947888927636e-04  -3.4667525852948308e-05 3.5039437478672579e-05 -5.5594767454470416e-04  -3.9215217515206594e-05 4.8433542546946553e-05 -7.7052792284317863e-04  -4.3070096774550104e-05 6.3384064758045214e-05 -1.0091549715538022e-03  -4.6290060520711129e-05 7.9667642316150051e-05 -1.2680042472467408e-03  -4.8932849898791540e-05 9.7074145406238752e-05 -1.5435817392846513e-03  -5.1056040985597227e-05 1.1540778690817069e-04 -1.8327239139310392e-03  -5.2717029259495058e-05 1.3448828437499807e-04 -2.1325975768145687e-03  -5.3973012952742536e-05 1.5415205203296077e-04 -2.4406996619169650e-03  -5.4880976748232347e-05 1.7425340758754650e-04 -2.7548569426461976e-03  -5.5497678669749685e-05 1.9466582322738416e-04 -3.0732256782093374e-03  -5.5879618986748391e-05 2.1528309505542643e-04 -3.3942910868541508e-03  -5.6082980767765033e-05 2.3602075220785206e-04 -3.7168666392661752e-03  -5.6163292725188684e-05 2.5681762596918090e-04 -4.0400921256143882e-03  -5.6177887413058911e-05 2.7763556954437822e-04 -4.3634298478786729e-03  0.0000000000000000e+00 0.0000000000000000e+00 0.0000000000000000e+00  -8.7103620114141263e-06 2.6177021238927551e-06 -2.5728386895577186e-05  -1.7465579685950588e-05 7.1768093802781523e-06 -9.9201994799759361e-05  -2.5111818088853944e-05 1.4369726530902933e-05 -2.1532818220641837e-04  -3.1817945677914981e-05 2.3868487644379211e-05 -3.6896727036969912e-04  -3.7646788905861155e-05 3.5410956879512598e-05 -5.5530063888721787e-04  -4.2659886029932941e-05 4.8749861200171794e-05 -7.6984170621398275e-04  -4.6918345814227718e-05 6.3649612972519097e-05 -1.0084348791879530e-03  -5.0483335857318117e-05 7.9886839048610728e-05 -1.2672551932919615e-03  -5.3416149234387338e-05 9.7251407181299658e-05 -1.5428082235300472e-03  -5.5778207849433879e-05 1.1554752860587534e-04 -1.8319300059948280e-03  -5.7631056263233938e-05 1.3459491845691616e-04 -2.1317869004916106e-03  -5.9036351070087804e-05 1.5422998754564620e-04 -2.4398753799808838e-03  -6.0055851128625465e-05 1.7430704870598291e-04 -2.7540217382631266e-03  -6.0751403342834496e-05 1.9469956656009707e-04 -3.0723817403268306e-03  -6.1184920749529520e-05 2.1530132706901352e-04 -3.3934400502464183e-03  -6.1418392981421669e-05 2.3602779080976095e-04 -3.7160095696982844e-03  -6.1513275211285272e-05 2.5681766531809072e-04 -4.0392293845825820e-03  -6.1532848941779186e-05 2.7763229641844528e-04 -4.3625625198901270e-03  0.0000000000000000e+00 0.0000000000000000e+00 0.0000000000000000e+00  -9.6926618015652673e-04 -1.2143470944635092e-03 -6.2162719177176360e-03  -6.4318830868554256e-04 -2.2708576650277584e-03 -1.0104152755252909e-02  -2.0761315299920423e-04 -2.7283224469092961e-03 -1.0661338560900114e-02  -8.8120604506903156e-05 -2.8482727715544044e-03 -1.0952359269600547e-02  -6.1089769603819391e-05 -2.8778531317229477e-03 -1.1195345070283092e-02  -6.0572087925122026e-05 -2.8801759707156216e-03 -1.1479012187234117e-02  -6.5094149500477004e-05 -2.8750610759639542e-03 -1.1796501640008511e-02  -6.9887339204546033e-05 -2.8677842489230085e-03 -1.2142381552445767e-02  -7.3997906109369573e-05 -2.8595706567353658e-03 -1.2511387997406559e-02  -7.7356538989758705e-05 -2.8508562028934071e-03 -1.2899242412803035e-02  -7.9951017636080334e-05 -2.8418321144685977e-03 -1.3301914542653710e-02  -8.2195742384135945e-05 -2.8327360275741511e-03 -1.3716877595899808e-02  -8.3196502068446856e-05 -2.8242810587837553e-03 -1.4138411173245656e-02  -8.8459030377569344e-05 -2.8189014086538178e-03 -1.4577029759734999e-02  -9.5324129052074756e-05 -2.8221444359559254e-03 -1.5010506727012953e-02  -1.7113761600361126e-04 -2.8756387723407957e-03 -1.5604550054485775e-02  -1.3178247814278347e-04 -3.2032601080303823e-03 -1.6928248513689941e-02  6.3159720201980585e-04 -3.9360089175493329e-03 -1.6067776424119561e-02  0.0000000000000000e+00 0.0000000000000000e+00 0.0000000000000000e+00  -1.3967726549835423e-03 -1.9173952012167474e-03 -1.1665285504983740e-02  -9.6908998900336674e-04 -3.8925456018564664e-03 -2.0639663758041348e-02  -2.7891480896632243e-04 -4.8204096159961459e-03 -2.2611420591971316e-02  -1.1188568891329802e-04 -5.0971345637509432e-03 -2.3312530262500322e-02  -7.3557360343427569e-05 -5.1758844792450069e-03 -2.3706721955281434e-02  -7.2795280375942769e-05 -5.1938793363782857e-03 -2.4069596464800787e-02  -7.8477048332982569e-05 -5.1946302610393069e-03 -2.4456444587557514e-02  -8.4398366536650397e-05 -5.1909200701568195e-03 -2.4871966840630796e-02  -8.9436213771227583e-05 -5.1856747516248122e-03 -2.53