<?xml version="1.0"?>
<VTKFile type="UnstructuredGrid"  version="0.1"  >
<UnstructuredGrid>
<Piece  NumberOfPoints="760" NumberOfCells="3024">
<Points>
<DataArray  type="Float64"  NumberOfComponents="3"  format="ascii">0 0 0  0.05555555555555555 0 0  0.1111111111111111 0 0  0.1666666666666667 0 0  0.2222222222222222 0 0  0.2777777777777778 0 0  0.3333333333333333 0 0  0.3888888888888889 0 0  0.4444444444444444 0 0  0.5 0 0  0.5555555555555556 0 0  0.6111111111111112 0 0  0.6666666666666666 0 0  0.7222222222222222 0 0  0.7777777777777778 0 0  0.8333333333333334 0 0  0.8888888888888888 0 0  0.9444444444444444 0 0  1 0 0  0 0.01428571428571429 0  0.05555555555555555 0.01428571428571429 0  0.1111111111111111 0.01428571428571429 0  0.1666666666666667 0.01428571428571429 0  0.2222222222222222 0.01428571428571429 0  0.2777777777777778 0.01428571428571429 0  0.3333333333333333 0.01428571428571429 0  0.3888888888888889 0.01428571428571429 0  0.4444444444444444 0.01428571428571429 0  0.5 0.01428571428571429 0  0.5555555555555556 0.01428571428571429 0  0.6111111111111112 0.01428571428571429 0  0.6666666666666666 0.01428571428571429 0  0.7222222222222222 0.01428571428571429 0  0.7777777777777778 0.01428571428571429 0  0.8333333333333334 0.01428571428571429 0  0.8888888888888888 0.01428571428571429 0  0.9444444444444444 0.01428571428571429 0  1 0.01428571428571429 0  0 0.02857142857142857 0  0.05555555555555555 0.02857142857142857 0  0.1111111111111111 0.02857142857142857 0  0.1666666666666667 0.02857142857142857 0  0.2222222222222222 0.02857142857142857 0  0.2777777777777778 0.02857142857142857 0  0.3333333333333333 0.02857142857142857 0  0.3888888888888889 0.02857142857142857 0  0.4444444444444444 0.02857142857142857 0  0.5 0.02857142857142857 0  0.5555555555555556 0.02857142857142857 0  0.6111111111111112 0.02857142857142857 0  0.6666666666666666 0.02857142857142857 0  0.7222222222222222 0.02857142857142857 0  0.7777777777777778 0.02857142857142857 0  0.8333333333333334 0.02857142857142857 0  0.8888888888888888 0.02857142857142857 0  0.9444444444444444 0.02857142857142857 0  1 0.02857142857142857 0  0 0.04285714285714286 0  0.05555555555555555 0.04285714285714286 0  0.1111111111111111 0.04285714285714286 0  0.1666666666666667 0.04285714285714286 0  0.2222222222222222 0.04285714285714286 0  0.2777777777777778 0.04285714285714286 0  0.3333333333333333 0.04285714285714286 0  0.3888888888888889 0.04285714285714286 0  0.4444444444444444 0.04285714285714286 0  0.5 0.04285714285714286 0  0.5555555555555556 0.04285714285714286 0  0.6111111111111112 0.04285714285714286 0  0.6666666666666666 0.04285714285714286 0  0.7222222222222222 0.04285714285714286 0  0.7777777777777778 0.04285714285714286 0  0.8333333333333334 0.04285714285714286 0  0.8888888888888888 0.04285714285714286 0  0.9444444444444444 0.04285714285714286 0  1 0.04285714285714286 0  0 0.05714285714285715 0  0.05555555555555555 0.05714285714285715 0  0.1111111111111111 0.05714285714285715 0  0.1666666666666667 0.05714285714285715 0  0.2222222222222222 0.05714285714285715 0  0.2777777777777778 0.05714285714285715 0  0.3333333333333333 0.05714285714285715 0  0.3888888888888889 0.05714285714285715 0  0.4444444444444444 0.05714285714285715 0  0.5 0.05714285714285715 0  0.5555555555555556 0.05714285714285715 0  0.6111111111111112 0.05714285714285715 0  0.6666666666666666 0.05714285714285715 0  0.7222222222222222 0.05714285714285715 0  0.7777777777777778 0.05714285714285715 0  0.8333333333333334 0.05714285714285715 0  0.8888888888888888 0.05714285714285715 0  0.9444444444444444 0.05714285714285715 0  1 0.05714285714285715 0  0 0.07142857142857142 0  0.05555555555555555 0.07142857142857142 0  0.1111111111111111 0.07142857142857142 0  0.1666666666666667 0.07142857142857142 0  0.2222222222222222 0.07142857142857142 0  0.2777777777777778 0.07142857142857142 0  0.3333333333333333 0.07142857142857142 0  0.3888888888888889 0.07142857142857142 0  0.4444444444444444 0.07142857142857142 0  0.5 0.07142857142857142 0  0.5555555555555556 0.07142857142857142 0  0.6111111111111112 0.07142857142857142 0  0.6666666666666666 0.07142857142857142 0  0.7222222222222222 0.07142857142857142 0  0.7777777777777778 0.07142857142857142 0  0.8333333333333334 0.07142857142857142 0  0.8888888888888888 0.07142857142857142 0  0.9444444444444444 0.07142857142857142 0  1 0.07142857142857142 0  0 0.08571428571428573 0  0.05555555555555555 0.08571428571428573 0  0.1111111111111111 0.08571428571428573 0  0.1666666666666667 0.08571428571428573 0  0.2222222222222222 0.08571428571428573 0  0.2777777777777778 0.08571428571428573 0  0.3333333333333333 0.08571428571428573 0  0.3888888888888889 0.08571428571428573 0  0.4444444444444444 0.08571428571428573 0  0.5 0.08571428571428573 0  0.5555555555555556 0.08571428571428573 0  0.6111111111111112 0.08571428571428573 0  0.6666666666666666 0.08571428571428573 0  0.7222222222222222 0.08571428571428573 0  0.7777777777777778 0.08571428571428573 0  0.8333333333333334 0.08571428571428573 0  0.8888888888888888 0.08571428571428573 0  0.9444444444444444 0.08571428571428573 0  1 0.08571428571428573 0  0 0.1 0  0.05555555555555555 0.1 0  0.1111111111111111 0.1 0  0.1666666666666667 0.1 0  0.2222222222222222 0.1 0  0.2777777777777778 0.1 0  0.3333333333333333 0.1 0  0.3888888888888889 0.1 0  0.4444444444444444 0.1 0  0.5 0.1 0  0.5555555555555556 0.1 0  0.6111111111111112 0.1 0  0.6666666666666666 0.1 0  0.7222222222222222 0.1 0  0.7777777777777778 0.1 0  0.8333333333333334 0.1 0  0.8888888888888888 0.1 0  0.9444444444444444 0.1 0  1 0.1 0  0 0 0.01  0.05555555555555555 0 0.01  0.1111111111111111 0 0.01  0.1666666666666667 0 0.01  0.2222222222222222 0 0.01  0.2777777777777778 0 0.01  0.3333333333333333 0 0.01  0.3888888888888889 0 0.01  0.4444444444444444 0 0.01  0.5 0 0.01  0.5555555555555556 0 0.01  0.6111111111111112 0 0.01  0.6666666666666666 0 0.01  0.7222222222222222 0 0.01  0.7777777777777778 0 0.01  0.8333333333333334 0 0.01  0.8888888888888888 0 0.01  0.9444444444444444 0 0.01  1 0 0.01  0 0.01428571428571429 0.01  0.05555555555555555 0.01428571428571429 0.01  0.1111111111111111 0.01428571428571429 0.01  0.1666666666666667 0.01428571428571429 0.01  0.2222222222222222 0.01428571428571429 0.01  0.2777777777777778 0.01428571428571429 0.01  0.3333333333333333 0.01428571428571429 0.01  0.3888888888888889 0.01428571428571429 0.01  0.4444444444444444 0.01428571428571429 0.01  0.5 0.01428571428571429 0.01  0.5555555555555556 0.01428571428571429 0.01  0.6111111111111112 0.01428571428571429 0.01  0.6666666666666666 0.01428571428571429 0.01  0.7222222222222222 0.01428571428571429 0.01  0.7777777777777778 0.01428571428571429 0.01  0.8333333333333334 0.01428571428571429 0.01  0.8888888888888888 0.01428571428571429 0.01  0.9444444444444444 0.01428571428571429 0.01  1 0.01428571428571429 0.01  0 0.02857142857142857 0.01  0.05555555555555555 0.02857142857142857 0.01  0.1111111111111111 0.02857142857142857 0.01  0.1666666666666667 0.02857142857142857 0.01  0.2222222222222222 0.02857142857142857 0.01  0.2777777777777778 0.02857142857142857 0.01  0.3333333333333333 0.02857142857142857 0.01  0.3888888888888889 0.02857142857142857 0.01  0.4444444444444444 0.02857142857142857 0.01  0.5 0.02857142857142857 0.01  0.5555555555555556 0.02857142857142857 0.01  0.6111111111111112 0.02857142857142857 0.01  0.6666666666666666 0.02857142857142857 0.01  0.7222222222222222 0.02857142857142857 0.01  0.7777777777777778 0.02857142857142857 0.01  0.8333333333333334 0.02857142857142857 0.01  0.8888888888888888 0.02857142857142857 0.01  0.9444444444444444 0.02857142857142857 0.01  1 0.02857142857142857 0.01  0 0.04285714285714286 0.01  0.05555555555555555 0.04285714285714286 0.01  0.1111111111111111 0.04285714285714286 0.01  0.1666666666666667 0.04285714285714286 0.01  0.2222222222222222 0.04285714285714286 0.01  0.2777777777777778 0.04285714285714286 0.01  0.3333333333333333 0.04285714285714286 0.01  0.3888888888888889 0.04285714285714286 0.01  0.4444444444444444 0.04285714285714286 0.01  0.5 0.04285714285714286 0.01  0.5555555555555556 0.04285714285714286 0.01  0.6111111111111112 0.04285714285714286 0.01  0.6666666666666666 0.04285714285714286 0.01  0.7222222222222222 0.04285714285714286 0.01  0.7777777777777778 0.04285714285714286 0.01  0.8333333333333334 0.04285714285714286 0.01  0.8888888888888888 0.04285714285714286 0.01  0.9444444444444444 0.04285714285714286 0.01  1 0.04285714285714286 0.01  0 0.05714285714285715 0.01  0.05555555555555555 0.05714285714285715 0.01  0.1111111111111111 0.05714285714285715 0.01  0.1666666666666667 0.05714285714285715 0.01  0.2222222222222222 0.05714285714285715 0.01  0.2777777777777778 0.05714285714285715 0.01  0.3333333333333333 0.05714285714285715 0.01  0.3888888888888889 0.05714285714285715 0.01  0.4444444444444444 0.05714285714285715 0.01  0.5 0.05714285714285715 0.01  0.5555555555555556 0.05714285714285715 0.01  0.6111111111111112 0.05714285714285715 0.01  0.6666666666666666 0.05714285714285715 0.01  0.7222222222222222 0.05714285714285715 0.01  0.7777777777777778 0.05714285714285715 0.01  0.8333333333333334 0.05714285714285715 0.01  0.8888888888888888 0.05714285714285715 0.01  0.9444444444444444 0.05714285714285715 0.01  1 0.05714285714285715 0.01  0 0.07142857142857142 0.01  0.05555555555555555 0.07142857142857142 0.01  0.1111111111111111 0.07142857142857142 0.01  0.1666666666666667 0.07142857142857142 0.01  0.2222222222222222 0.07142857142857142 0.01  0.2777777777777778 0.07142857142857142 0.01  0.3333333333333333 0.07142857142857142 0.01  0.3888888888888889 0.07142857142857142 0.01  0.4444444444444444 0.07142857142857142 0.01  0.5 0.07142857142857142 0.01  0.5555555555555556 0.07142857142857142 0.01  0.6111111111111112 0.07142857142857142 0.01  0.6666666666666666 0.07142857142857142 0.01  0.7222222222222222 0.07142857142857142 0.01  0.7777777777777778 0.07142857142857142 0.01  0.8333333333333334 0.07142857142857142 0.01  0.8888888888888888 0.07142857142857142 0.01  
[...]
<PointData  Vectors="f_36"> 
<DataArray  type="Float64"  Name="f_36"  NumberOfComponents="3" format="ascii">0.0000000000000000e+00 0.0000000000000000e+00 0.0000000000000000e+00  -1.3070772226846880e-03 2.6169366426107787e-03 -6.1753674037072449e-03  -1.3922767214679067e-03 4.8920859860802348e-03 -1.2980185986191155e-02  -8.7993968517321303e-04 6.4205058617199350e-03 -1.8164163556646712e-02  -2.8481028068106420e-05 6.7568482494055207e-03 -2.0092821394144464e-02  9.7068308342095576e-04 5.6778756229066470e-03 -1.7823308226713665e-02  1.6242704123790646e-03 3.4794256780052196e-03 -1.1301517587354168e-02  1.2983934738705616e-03 1.3213677871964015e-03 -3.7346496946838691e-03  3.7776216695836181e-04 3.6287793993634458e-04 -2.2583965958753200e-04  1.5998331891589205e-05 2.9192399185836777e-04 -7.0794080366928705e-04  5.0342910764971575e-04 -1.3829753773214387e-04 -3.5678167349765025e-04  9.3661338767386869e-04 -1.3228033619089967e-03 3.3123027647381314e-03  7.3284176562683800e-04 -2.4761848214926115e-03 7.3298823065337717e-03  4.3763025634244293e-04 -3.1165235998737886e-03 9.1363148604466579e-03  4.2167042166478373e-04 -3.6050483933955666e-03 1.0425227112344594e-02  4.2224337490650904e-04 -4.1282637451190941e-03 1.2121778963946547e-02  3.1055441083682387e-04 -4.5578713814597785e-03 1.3558891465771005e-02  5.2103403126084650e-05 -4.8561109796297370e-03 1.4582160901391078e-02  -2.6340232575571248e-04 -5.2097423206908617e-03 1.4811043498283171e-02  0.0000000000000000e+00 0.0000000000000000e+00 0.0000000000000000e+00  -1.2626171020745202e-03 2.2274752352957981e-03 -3.8461672738146859e-03  -1.3619978010706089e-03 4.3361360957258448e-03 -8.5753343638263774e-03  -8.9319999985247383e-04 5.8335657540522171e-03 -1.2336119368636425e-02  -9.4212910501745436e-05 6.2678862404301067e-03 -1.3912105534311331e-02  8.5303537605787801e-04 5.3933540871809980e-03 -1.2578030014026638e-02  1.5290370260046338e-03 3.4175566897615482e-03 -8.0691005380857349e-03  1.3185129175829751e-03 1.3648615477751353e-03 -2.5186069332475418e-03  4.4413821125331498e-04 3.7632613276291418e-04 1.1405222537330170e-04  2.4131812308302608e-06 2.8632313107128789e-04 -3.9649168462933565e-04  4.1204852184065265e-04 -5.1799131496416745e-05 -4.1992769328312487e-04  8.8353286811301650e-04 -1.1071381662624683e-03 2.1479045532761436e-03  7.4382008900123939e-04 -2.2002551359759474e-03 5.1139956604830472e-03  4.2466138357159712e-04 -2.8234508187698795e-03 6.3622147366899674e-03  3.8689200084177842e-04 -3.2771758813741688e-03 7.1975742195160997e-03  4.0400472341733755e-04 -3.7637440363850498e-03 8.4047706387925091e-03  3.1682170591208942e-04 -4.1747209207463670e-03 9.4523685505194729e-03  1.3145597160241240e-04 -4.4790184529864248e-03 1.0259232030263792e-02  -2.9370844498216310e-04 -4.9604336090668926e-03 1.0698402597273515e-02  0.0000000000000000e+00 0.0000000000000000e+00 0.0000000000000000e+00  -7.6903657589904076e-04 1.3588414054698187e-03 -1.6261956773222998e-03  -8.4913845169782621e-04 2.7715375405263391e-03 -3.8733468012970874e-03  -5.6864419604687729e-04 3.8483726262545214e-03 -5.7266134455257979e-03  -7.8680156433418870e-05 4.2404102215501524e-03 -6.5729073425493494e-03  5.0599384160719826e-04 3.7448757148322003e-03 -6.0422705881421415e-03  9.4186703890005374e-04 2.4367616098878221e-03 -3.9046032689578989e-03  8.4870904505092079e-04 9.8048412127668683e-04 -1.1071499654951237e-03  3.1311728674629009e-04 2.3923539156688750e-04 2.7858160321061549e-04  6.4684489637901848e-06 1.9601044620203706e-04 -7.2768903446658868e-06  2.3795924557173394e-04 3.8063397231709567e-05 -1.2300659765108121e-04  5.4948094682599812e-04 -6.5342393254451880e-04 1.1262170570668726e-03  4.8560272631040436e-04 -1.4239737206425596e-03 2.6556020873924873e-03  2.7598946177207373e-04 -1.8582124798654149e-03 3.2839854187107350e-03  2.4289736958791496e-04 -2.1553497582673994e-03 3.6821108412913935e-03  2.6016515273308256e-04 -2.4856073082494762e-03 4.2997016933561038e-03  2.1454781191471966e-04 -2.7771785369883782e-03 4.8511523923992451e-03  1.4395552610337869e-04 -2.9917498943609119e-03 5.3060587965449825e-03  -4.2062372628273091e-04 -3.5933820418389923e-03 5.7425802676470588e-03  0.0000000000000000e+00 0.0000000000000000e+00 0.0000000000000000e+00  2.7489451610027705e-06 -2.1272345367119073e-07 3.7147529647452370e-06  5.5567153113954795e-06 -6.9174841147949904e-07 1.5079129527774224e-05  8.3899440082551419e-06 -1.4577725319591130e-06 3.4437030909025084e-05  1.1183931712659882e-05 -2.5006609177777792e-06 6.1778428322912420e-05  1.3867362197308205e-05 -3.8112272093512857e-06 9.6899628773334474e-05  1.6369104409340845e-05 -5.3745131510996254e-06 1.3938116076360414e-04  1.8635442734495546e-05 -7.1696623554136088e-06 1.8860889717047064e-04  2.0643252133673161e-05 -9.1713450933029114e-06 2.4385371063355031e-04  2.2392542916588380e-05 -1.1352946652131268e-05 3.0437449540702193e-04  2.3884516363046153e-05 -1.3688968671373572e-05 3.6945418053703190e-04  2.5113201893483931e-05 -1.6154616360820054e-05 4.3836478868689889e-04  2.6078567539927316e-05 -1.8724539589141942e-05 5.1035027696938169e-04  2.6797712532914379e-05 -2.1373734098025827e-05 5.8467599942815113e-04  2.7298870568236913e-05 -2.4080004713769641e-05 6.6068434125234022e-04  2.7614236138893518e-05 -2.6825017210325736e-05 7.3780445590308004e-04  2.7781613883453603e-05 -2.9593953018076411e-05 8.1555999195236583e-04  2.7845766826824310e-05 -3.2375995710502576e-05 8.9359192222094621e-04  2.7857636926145741e-05 -3.5165495059549839e-05 9.7167804364467264e-04  0.0000000000000000e+00 0.0000000000000000e+00 0.0000000000000000e+00  2.5689011333395008e-06 -3.7545385087832868e-07 3.6747121917539703e-06  5.4447739812539188e-06 -8.5940399961941114e-07 1.5023301650484910e-05  8.3514853504056500e-06 -1.6260704346295012e-06 3.4377750359994211e-05  1.1223205607571141e-05 -2.6643166115471946e-06 6.1717557927591841e-05  1.3988499646220660e-05 -3.9651522570534559e-06 9.6837991125396227e-05  1.6573930781954236e-05 -5.5144101336590953e-06 1.3931857481547520e-04  1.8921657237274635e-05 -7.2933897947520182e-06 1.8854467469960672e-04  2.1004432534222063e-05 -9.2791477920216023e-06 2.4378753928044701e-04  2.2821217189891875e-05 -1.1445637059942333e-05 3.0430707087520959e-04  2.4374660571977147e-05 -1.3766305972189031e-05 3.6938681808343273e-04  2.5659234815708696e-05 -1.6215947003404937e-05 4.3829854830808058e-04  2.6673117549578297e-05 -1.8770396693387667e-05 5.1028571042347577e-04  2.7431998923363686e-05 -2.1405866772200051e-05 5.8461359100277449e-04  2.7964626378610955e-05 -2.4100326786398688e-05 6.6062455011600978e-04  2.8303808661641518e-05 -2.6835544420312529e-05 7.3774716348934226e-04  2.8487543844083459e-05 -2.9597166343226223e-05 8.1550431932781461e-04  2.8561126964685838e-05 -3.2374758422740678e-05 8.9353633893652349e-04  2.8576006796643383e-05 -3.5162663195489980e-05 9.7162042492627328e-04  0.0000000000000000e+00 0.0000000000000000e+00 0.0000000000000000e+00  -8.4814275223435063e-04 -1.5091260193418070e-03 -2.3655558869311770e-03  -8.3621096235015127e-04 -3.0463790858676200e-03 -4.8698334771132210e-03  -4.9937228832714210e-04 -4.2464686525454324e-03 -6.6903905630149411e-03  1.4281500736118345e-05 -4.7109386164605272e-03 -7.2619108654779730e-03  5.8221164401264639e-04 -4.2430911388730494e-03 -6.3080796304799845e-03  9.4422487406192735e-04 -2.9201805596323644e-03 -3.8277742838618957e-03  7.5814805455563545e-04 -1.3526669382553753e-03 -1.0012319655510807e-03  2.1717471303437592e-04 -4.4614559577790699e-04 1.7856672972785273e-04  -1.4933585908592736e-05 -3.3403500709376622e-04 -2.2552583810211906e-04  2.6776846365564116e-04 -2.2860856386171217e-04 -2.1111018190110288e-04  5.4606381894909425e-04 4.3904960704912581e-04 1.2326774855418703e-03  4.5130985479653862e-04 1.3109153942131772e-03 2.8191892195119964e-03  3.0029758781915700e-04 1.8996482129623464e-03 3.5204227573868685e-03  3.1920835760837273e-04 2.3535751496937020e-03 4.1757288005805845e-03  3.3067723062290335e-04 2.8589055209623871e-03 5.0860349193667881e-03  2.5984511083639462e-04 3.3335385664213205e-03 5.8627132782274579e-03  1.1229604213843426e-04 3.7681047547366672e-03 6.4605955208884803e-03  -3.1627257317235971e-04 4.4250056884977259e-03 6.5621548520072587e-03  0.0000000000000000e+00 0.0000000000000000e+00 0.0000000000000000e+00  -1.3475758785479420e-03 -1.9511787174706081e-03 -4.6430558259609967e-03  -1.3667284928717139e-03 -4.1125635653359426e-03 -9.5883613380616170e-03  -8.3590087856702403e-04 -5.8446235588444301e-03 -1.3256362297733779e-02  -1.6581666372163872e-05 -6.5909537217082887e-03 -1.4500081262584130e-02  8.9379866143600049e-04 -6.0546847616643213e-03 -1.2767683175118848e-02  1.5015085823674220e-03 -4.3080058817605007e-03 -8.0872874988596327e-03  1.2464739319101525e-03 -2.1295163385482937e-03 -2.6326966884035129e-03  3.6764627721798377e-04 -7.5871689371468146e-04 -1.5391714706789134e-04  -5.7753225402467417e-05 -4.9299104129666945e-04 -7.3538752284825959e-04  3.7843638367054808e-04 -3.4110130629159415e-04 -7.2773931174040815e-04  8.6456836887973071e-04 5.3425411900239101e-04 1.9163393078356580e-03  7.3330163820833384e-04 1.7463541320808756e-03 4.9743346237028354e-03  4.6282610394071010e-04 2.6145332299347076e-03 6.4234548207408992e-03  4.8875351176334608e-04 3.2722529509015739e-03 7.6868823721440924e-03  5.2013875041343784e-04 3.9835792754257171e-03 9.4125016889661413e-03  3.9536257629809053e-04 4.6656581054992721e-03 1.0906506691158304e-02  1.5614176137334590e-04 5.3182208601777721e-03 1.2044901984040318e-02  -1.7379487402860905e-04 6.3419976031567739e-03 1.2314152538857967e-02  0.0000000000000000e+00 0.0000000000000000e+00 0.0000000000000000e+00  -1.3717431995409323e-03 -1.9042396347382514e-03 -6.3762071408081395e-03  -1.4501162374830061e-03 -4.2252373734012584e-03 -1.3228528283594077e-02  -9.3304348998945574e-04 -6.1232204476652672e-03 -1.8417617579467357e-02  -1.0396391536708132e-04 -7.0092178996826772e-03 -2.0302830418088249e-02  8.3771246596305927e-04 -6.5444426099036512e-03 -1.8090246076536132e-02  1.5325530418968084e-03 -4.7647938852187245e-03 -1.1869979965948834e-02  1.3725441193785570e-03 -2.4460094532431980e-03 -4.4658184579101637e-03  4.4847587921015741e-04 -9.1114541878695426e-04 -7.6734547519863403e-04  -1.0543704097048593e-04 -5.6092327990409508e-04 -1.1508405481041454e-03  3.0245086835844164e-04 -4.0350590854620259e-04 -1.0447439971322055e-03  8.8704870887123806e-04 4.9015772490751733e-04 2.3922844575366533e-03  8.0339815148426923e-04 1.7758369330640111e-03 6.5639204718304393e-03  4.7007208272418149e-04 2.7238887720511464e-03 8.7612329706001323e-03  4.8271441810387772e-04 3.4389881246501969e-03 1.0583187285010096e-02  5.4132160453443964e-04 4.2034715556319904e-03 1.2956296210226096e-02  4.0110880524939479e-04 4.9466498634975634e-03 1.5059663925215514e-02  9.5056315724252954e-05 5.6522908343125166e-03 1.6701709344380790e-02  -1.8612175614982212e-04 6.8148453975098245e-03 1.7474516277363992e-02  0.0000000000000000e+00 0.0000000000000000e+00 0.0000000000000000e+00  -5.2295382380297239e-04 1.0243299312035570e-03 -5.9604969051889091e-03  -6.2439736792248670e-04 2.0480534016746391e-03 -1.2761869040792986e-02  -4.2539272522492278e-04 2.7558201654621652e-03 -1.7962319139470440e-02  -6.6427935649212045e-05 2.9563865762129199e-03 -1.9946081102480129e-02  3.6645367155694670e-04 2.5352398880509170e-03 -1.7764987633004947e-02  6.8282875403709190e-04 1.5860305066471097e-03 -1.1316281184963039e-02  5.9651604158705417e-04 5.9986454623266053e-04 -3.7476500802836529e-03  2.1235754639284461e-04 1.4076936637953631e-04 -1.9919607727336900e-04  2.0663008598425352e-05 1.2812816608620748e-04 -6.9480229406681268e-04  2.0951879532777503e-04 -1.6467892807116991e-05 -4.1299238533467605e-04  4.2451863285427406e-04 -5.2934729324736996e-04 3.2099555658725736e-03  3.6684051422884148e-04 -1.0607588798410669e-03 7.2323573888512169e-03  2.3331290031067254e-04 -1.3481083410601816e-03 9.0375441999177627e-03  2.1504208121858519e-04 -1.5507585541736371e-03 1.0302821408308547e-02  2.1272757873033160e-04 -1.7771722378925865e-03 1.1985866691062386e-02  1.4497815991624632e-04 -1.9726665266651365e-03 1.3420346205616709e-02  -3.5685446857782583e-05 -2.1578055653168320e-03 1.4441148987556447e-02  -2.8756691432578349e-04 -2.4947573787604546e-03 1.4670084743488975e-02  0.0000000000000000e+00 0.0000000000000000e+00 0.0000000000000000e+00  -5.6985128596638600e-04 9.0047945708530313e-04 -3.6920835579422459e-03  -6.6296196608529900e-04 1.7920223812205394e-03 -8.4065739164914284e-03  -4.5408202029179696e-04 2.4351388200084590e-03 -1.2166303792942684e-02  -8.1099890903615343e-05 2.6370452342918222e-03 -1.3770605912560706e-02  3.6668249570747654e-04 2.2891638875028957e-03 -1.2495604471296516e-02  7.0547728451797367e-04 1.4668279060156871e-03 -8.0430758659448213e-03  6.4382813342360923e-04 5.8946114620236716e-04 -2.4960688873513887e-03  2.4714460187377812e-04 1.5292455544058475e-04 1.5959913634792594e-04  1.7380033773115045e-05 1.1476896391128335e-04 -3.7302458375499607e-04  1.9227896700461711e-04 -1.3188516418027705e-05 -4.6036641754818275e-04  4.3111900234645673e-04 -4.5445001004680439e-04 2.0684967009554868e-03  3.8971819554824773e-04 -9.2743139312316742e-04 5.0390844731495145e-03  2.3766347265306381e-04 -1.1972045981560259e-03 6.2815147286338791e-03  2.0880588356166836e-04 -1.3847008017223409e-03 7.0898811157350597e-03  2.1382276064613873e-04 -1.5870997224290758e-03 8.2827293144051729e-03  1.6221035211168183e-04 -1.7607106996256267e-03 9.3262013517123165e-03  3.7488737859413594e-05 -1.9170714004536429e-03 1.0131852516988461e-02  -2.6972287218018215e-04 -2.2703240829395790e-03 1.0603511759737939e-02  0.0000000000000000e+00 0.0000000000000000e+00 0.0000000000000000e+00  -3.7624513341018962e-04 5.4780738422185993e-04 -1.4421187468750981e-03  -4.3692171516333540e-04 1.0958317084251489e-03 -3.5827297477789466e-03  -3.0130004722926543e-04 1.5100717675720762e-03 -5.3618751090966079e-03  -5.7217474160878426e-05 1.6553568265687342e-03 -6.1975169870423395e-03  2.3564090942768131e-04 1.4568598659944589e-03 -5.7309079819991508e-03  4.6160347382926439e-04 9.5220329605306432e-04 -3.7026935754854661e-03  4.3389137726194103e-04 3.9557152502456603e-04 -9.9242928261959133e-04  1.7741217146222975e-04 1.0419942560382384e-04 3.5210884151777155e-04  1.4588396713763189e-05 7.0327832044472661e-05 2.7312630173716495e-05  1.1890586884600000e-04 -4.7791720845855800e-06 -1.5320815723361288e-04  2.8128813180534895e-04 -2.7439998689712954e-04 1.0297605673422515e-03  2.6366672431170292e-04 -5.7369814164165531e-04 2.5165073405426937e-03  1.5950629554484832e-04 -7.4985766010822734e-04 3.1065127626302325e-03  1.3544014563512933e-04 -8.7104249895407005e-04 3.4598553853732138e-03  1.4197006075545440e-04 -1.0000827415275631e-03 4.0444295013892396e-03  1.1604044607330593e-04 -1.1124692437902361e-03 4.5743942561762606e-03  6.7782335955198200e-05 -1.2014577365798598e-03 5.0137161883128884e-03  -2.9135526836917706e-04 -1.4989183687429402e-03 5.4525708165033627e-03  0.0000000000000000e+00 0.0000000000000000e+00 0.0000000000000000e+00  1.2957152283637339e-06 -2.0241963637637203e-07 3.5980994447544319e-06  2.6898995284608027e-06 -6.8141251644281223e-07 1.4959161868342801e-05  4.0879501704684583e-06 -1.4448290339570757e-06 3.4316582436037294e-05  5.4688145195624416e-06 -2.4858171621941351e-06 6.1660382109106633e-05  6.7981009143481686e-06 -3.7939785925402057e-06 9.6786863115561314e-05  8.0405744650262273e-06 -5.3538580292480339e-06 1.3927642295327643e-04  9.1687350274788888e-06 -7.1447649034572979e-06 1.8851418831404755e-04  1.0169731237259942e-05 -9.1422521164911191e-06 2.4376991102425087e-04  1.1042855973068239e-05 -1.1320486915987241e-05 3.0430171054504347e-04  1.1789034881715091e-05 -1.3654001599521261e-05 3.6939245394924290e-04  1.2405647625831285e-05 -1.6117642682692527e-05 4.3831428029340793e-04  1.2892175494892244e-05 -1.8686040707520756e-05 5.1031080727348399e-04  1.3256302897207401e-05 -2.1334458228896457e-05 5.8464675463049055e-04  1.3511708522298110e-05 -2.4040629384647061e-05 6.6066409862809271e-04  1.3674187796346617e-05 -2.6785790083725544e-05 7.3779178090591687e-04  1.3762143379689828e-05 -2.9554694178521789e-05 8.1555318341829564e-04  1.3797345356196161e-05 -3.2336192975295476e-05 8.9358897697699427e-04  1.3804251892471305e-05 -3.5124123087629835e-05 9.7167583129646263e-04  0.0000000000000000e+00 0.0000000000000000e+00 0.0000000000000000e+00  1.3052287798993725e-06 -3.1649711529327105e-07 3.5400170900017732e-06  2.7810670419528665e-06 -7.8854200506949023e-07 1.4895993177994098e-05  4.2513832640775289e-06 -1.5514061346999958e-06 3.4249975523744999e-05  5.7041779091414094e-06 -2.5896438614195459e-06 6.1591613184768302e-05  7.1039775218034473e-06 -3.8921760870340109e-06 9.6716725892585800e-05  8.4139896154491616e-06 -5.4438258381677060e-06 1.3920499873909349e-04  9.6048385135920635e-06 -7.2249615296119745e-06 1.8844124299964533e-04  1.0662103054977694e-05 -9.2124359861260376e-06 2.4369555541924013e-04  1.1584639867423225e-05 -1.1380952304703654e-05 3.0422675465183066e-04  1.2373799521764154e-05 -1.3704701374278168e-05 3.6931810380314744e-04  1.3027143533692026e-05 -1.6158306418722715e-05 4.3824159263989302e-04  1.3543766195076290e-05 -1.8716924513449579e-05 5.1024052599248136e-04  1.3931247284529795e-05 -2.1356515538070506e-05 5.8457951408041246e-04  1.4203930696424872e-05 -2.4055059405909668e-05 6.6060035753275678e-04  1.4378451384115639e-05 -2.6793901346158825e-05 7.3773141874510591e-04  1.4473998184464726e-05 -2.9558041911665647e-05 8.1549535013837170e-04  1.4513340851359483e-05 -3.2336517632507668e-05 8.9353218267564343e-04  1.4521923161646181e-05 -3.5123068275635385e-05 9.7161854909576901e-04  0.0000000000000000e+00 0.0000000000000000e+00 0.0000000000000000e+00  -4.2493928924971781e-04 -5.3773856048661703e-04 -2.1049826090276183e-03  -4.4739213389434078e-04 -1.0707697536460163e-03 -4.3385223197253756e-03  -2.8855817473080655e-04 -1.4998250589686782e-03 -5.9211684106116047e-03  -3.2033033046614635e-05 -1.6727996607924756e-03 -6.3748324588145848e-03  2.5825184632334369e-04 -1.5178358165524597e-03 -5.4719916328144188e-03  4.6524807423634182e-04 -1.0598483448932990e-03 -3.2001073928477467e-03  4.0976110625387318e-04 -5.0776966893389681e-04 -6.4182739273144847e-04  1.4151067685277017e-04 -1.7862230691384530e-04 3.4096618796869682e-04  -9.5334131644742317e-06 -1.2836891080196796e-04 -1.4659502593983745e-04  1.1338438674735790e-04 -9.0495527071341548e-05 -1.8186040205015857e-04  2.7500785042353798e-04 1.3778565884633038e-04 1.1600904046023929e-03  2.4787336603943603e-04 4.4238714188811360e-04 2.6029415033506742e-03  1.6228487272224506e-04 6.5397287083006480e-04 3.1722461290378812e-03  1.6533420064414239e-04 8.1621720779306666e-04 3.7208960461162285e-03  1.7482483917969724e-04 9.9061872422476520e-04 4.5346953479566922e-03  1.3414011993871907e-04 1.1545880218589639e-03 5.2174737279031486e-03  6.1232632598424178e-05 1.3276053906906640e-03 5.7205037890122020e-03  -2.4780442881252018e-04 1.6046428234390263e-03 5.5981691151528994e-03  0.0000000000000000e+00 0.0000000000000000e+00 0.0000000000000000e+00  -6.1317246455198872e-04 -8.5444633747987968e-04 -4.4839398733174194e-03  -6.8018267241187129e-04 -1.8267431424748193e-03 -9.3565420409638077e-03  -4.4544258818852848e-04 -2.6222481998755642e-03 -1.2933404410622363e-02  -6.4298081659677636e-05 -2.9816665731855992e-03 -1.4127576188179709e-02  3.6953853622370545e-04 -2.7641386417407809e-03 -1.2411832774392593e-02  6.8857848242416867e-04 -1.9928435415300771e-03 -7.8034088518276427e-03  6.1778707494548727e-04 -1.0081025040744747e-03 -2.4307187603224718e-03  2.0797330790574541e-04 -3.7169564089001620e-04 -2.3322916347171761e-05  -3.6860627029872736e-05 -2.3619657297122950e-04 -6.7447518616199631e-04  1.4742923268383580e-04 -1.6927105702253258e-04 -7.3017186171909002e-04  4.0791562581102964e-04 2.1403287003024477e-04 1.8691214829182593e-03  3.7200874684507798e-04 7.5637816728802733e-04 4.8889200289117616e-03  2.3125078871001709e-04 1.