<?xml version="1.0"?>
<VTKFile type="UnstructuredGrid"  version="0.1"  >
<UnstructuredGrid>
<Piece  NumberOfPoints="760" NumberOfCells="3024">
<Points>
<DataArray  type="Float64"  NumberOfComponents="3"  format="ascii">0 0 0  0.05555555555555555 0 0  0.1111111111111111 0 0  0.1666666666666667 0 0  0.2222222222222222 0 0  0.2777777777777778 0 0  0.3333333333333333 0 0  0.3888888888888889 0 0  0.4444444444444444 0 0  0.5 0 0  0.5555555555555556 0 0  0.6111111111111112 0 0  0.6666666666666666 0 0  0.7222222222222222 0 0  0.7777777777777778 0 0  0.8333333333333334 0 0  0.8888888888888888 0 0  0.9444444444444444 0 0  1 0 0  0 0.01428571428571429 0  0.05555555555555555 0.01428571428571429 0  0.1111111111111111 0.01428571428571429 0  0.1666666666666667 0.01428571428571429 0  0.2222222222222222 0.01428571428571429 0  0.2777777777777778 0.01428571428571429 0  0.3333333333333333 0.01428571428571429 0  0.3888888888888889 0.01428571428571429 0  0.4444444444444444 0.01428571428571429 0  0.5 0.01428571428571429 0  0.5555555555555556 0.01428571428571429 0  0.6111111111111112 0.01428571428571429 0  0.6666666666666666 0.01428571428571429 0  0.7222222222222222 0.01428571428571429 0  0.7777777777777778 0.01428571428571429 0  0.8333333333333334 0.01428571428571429 0  0.8888888888888888 0.01428571428571429 0  0.9444444444444444 0.01428571428571429 0  1 0.01428571428571429 0  0 0.02857142857142857 0  0.05555555555555555 0.02857142857142857 0  0.1111111111111111 0.02857142857142857 0  0.1666666666666667 0.02857142857142857 0  0.2222222222222222 0.02857142857142857 0  0.2777777777777778 0.02857142857142857 0  0.3333333333333333 0.02857142857142857 0  0.3888888888888889 0.02857142857142857 0  0.4444444444444444 0.02857142857142857 0  0.5 0.02857142857142857 0  0.5555555555555556 0.02857142857142857 0  0.6111111111111112 0.02857142857142857 0  0.6666666666666666 0.02857142857142857 0  0.7222222222222222 0.02857142857142857 0  0.7777777777777778 0.02857142857142857 0  0.8333333333333334 0.02857142857142857 0  0.8888888888888888 0.02857142857142857 0  0.9444444444444444 0.02857142857142857 0  1 0.02857142857142857 0  0 0.04285714285714286 0  0.05555555555555555 0.04285714285714286 0  0.1111111111111111 0.04285714285714286 0  0.1666666666666667 0.04285714285714286 0  0.2222222222222222 0.04285714285714286 0  0.2777777777777778 0.04285714285714286 0  0.3333333333333333 0.04285714285714286 0  0.3888888888888889 0.04285714285714286 0  0.4444444444444444 0.04285714285714286 0  0.5 0.04285714285714286 0  0.5555555555555556 0.04285714285714286 0  0.6111111111111112 0.04285714285714286 0  0.6666666666666666 0.04285714285714286 0  0.7222222222222222 0.04285714285714286 0  0.7777777777777778 0.04285714285714286 0  0.8333333333333334 0.04285714285714286 0  0.8888888888888888 0.04285714285714286 0  0.9444444444444444 0.04285714285714286 0  1 0.04285714285714286 0  0 0.05714285714285715 0  0.05555555555555555 0.05714285714285715 0  0.1111111111111111 0.05714285714285715 0  0.1666666666666667 0.05714285714285715 0  0.2222222222222222 0.05714285714285715 0  0.2777777777777778 0.05714285714285715 0  0.3333333333333333 0.05714285714285715 0  0.3888888888888889 0.05714285714285715 0  0.4444444444444444 0.05714285714285715 0  0.5 0.05714285714285715 0  0.5555555555555556 0.05714285714285715 0  0.6111111111111112 0.05714285714285715 0  0.6666666666666666 0.05714285714285715 0  0.7222222222222222 0.05714285714285715 0  0.7777777777777778 0.05714285714285715 0  0.8333333333333334 0.05714285714285715 0  0.8888888888888888 0.05714285714285715 0  0.9444444444444444 0.05714285714285715 0  1 0.05714285714285715 0  0 0.07142857142857142 0  0.05555555555555555 0.07142857142857142 0  0.1111111111111111 0.07142857142857142 0  0.1666666666666667 0.07142857142857142 0  0.2222222222222222 0.07142857142857142 0  0.2777777777777778 0.07142857142857142 0  0.3333333333333333 0.07142857142857142 0  0.3888888888888889 0.07142857142857142 0  0.4444444444444444 0.07142857142857142 0  0.5 0.07142857142857142 0  0.5555555555555556 0.07142857142857142 0  0.6111111111111112 0.07142857142857142 0  0.6666666666666666 0.07142857142857142 0  0.7222222222222222 0.07142857142857142 0  0.7777777777777778 0.07142857142857142 0  0.8333333333333334 0.07142857142857142 0  0.8888888888888888 0.07142857142857142 0  0.9444444444444444 0.07142857142857142 0  1 0.07142857142857142 0  0 0.08571428571428573 0  0.05555555555555555 0.08571428571428573 0  0.1111111111111111 0.08571428571428573 0  0.1666666666666667 0.08571428571428573 0  0.2222222222222222 0.08571428571428573 0  0.2777777777777778 0.08571428571428573 0  0.3333333333333333 0.08571428571428573 0  0.3888888888888889 0.08571428571428573 0  0.4444444444444444 0.08571428571428573 0  0.5 0.08571428571428573 0  0.5555555555555556 0.08571428571428573 0  0.6111111111111112 0.08571428571428573 0  0.6666666666666666 0.08571428571428573 0  0.7222222222222222 0.08571428571428573 0  0.7777777777777778 0.08571428571428573 0  0.8333333333333334 0.08571428571428573 0  0.8888888888888888 0.08571428571428573 0  0.9444444444444444 0.08571428571428573 0  1 0.08571428571428573 0  0 0.1 0  0.05555555555555555 0.1 0  0.1111111111111111 0.1 0  0.1666666666666667 0.1 0  0.2222222222222222 0.1 0  0.2777777777777778 0.1 0  0.3333333333333333 0.1 0  0.3888888888888889 0.1 0  0.4444444444444444 0.1 0  0.5 0.1 0  0.5555555555555556 0.1 0  0.6111111111111112 0.1 0  0.6666666666666666 0.1 0  0.7222222222222222 0.1 0  0.7777777777777778 0.1 0  0.8333333333333334 0.1 0  0.8888888888888888 0.1 0  0.9444444444444444 0.1 0  1 0.1 0  0 0 0.01  0.05555555555555555 0 0.01  0.1111111111111111 0 0.01  0.1666666666666667 0 0.01  0.2222222222222222 0 0.01  0.2777777777777778 0 0.01  0.3333333333333333 0 0.01  0.3888888888888889 0 0.01  0.4444444444444444 0 0.01  0.5 0 0.01  0.5555555555555556 0 0.01  0.6111111111111112 0 0.01  0.6666666666666666 0 0.01  0.7222222222222222 0 0.01  0.7777777777777778 0 0.01  0.8333333333333334 0 0.01  0.8888888888888888 0 0.01  0.9444444444444444 0 0.01  1 0 0.01  0 0.01428571428571429 0.01  0.05555555555555555 0.01428571428571429 0.01  0.1111111111111111 0.01428571428571429 0.01  0.1666666666666667 0.01428571428571429 0.01  0.2222222222222222 0.01428571428571429 0.01  0.2777777777777778 0.01428571428571429 0.01  0.3333333333333333 0.01428571428571429 0.01  0.3888888888888889 0.01428571428571429 0.01  0.4444444444444444 0.01428571428571429 0.01  0.5 0.01428571428571429 0.01  0.5555555555555556 0.01428571428571429 0.01  0.6111111111111112 0.01428571428571429 0.01  0.6666666666666666 0.01428571428571429 0.01  0.7222222222222222 0.01428571428571429 0.01  0.7777777777777778 0.01428571428571429 0.01  0.8333333333333334 0.01428571428571429 0.01  0.8888888888888888 0.01428571428571429 0.01  0.9444444444444444 0.01428571428571429 0.01  1 0.01428571428571429 0.01  0 0.02857142857142857 0.01  0.05555555555555555 0.02857142857142857 0.01  0.1111111111111111 0.02857142857142857 0.01  0.1666666666666667 0.02857142857142857 0.01  0.2222222222222222 0.02857142857142857 0.01  0.2777777777777778 0.02857142857142857 0.01  0.3333333333333333 0.02857142857142857 0.01  0.3888888888888889 0.02857142857142857 0.01  0.4444444444444444 0.02857142857142857 0.01  0.5 0.02857142857142857 0.01  0.5555555555555556 0.02857142857142857 0.01  0.6111111111111112 0.02857142857142857 0.01  0.6666666666666666 0.02857142857142857 0.01  0.7222222222222222 0.02857142857142857 0.01  0.7777777777777778 0.02857142857142857 0.01  0.8333333333333334 0.02857142857142857 0.01  0.8888888888888888 0.02857142857142857 0.01  0.9444444444444444 0.02857142857142857 0.01  1 0.02857142857142857 0.01  0 0.04285714285714286 0.01  0.05555555555555555 0.04285714285714286 0.01  0.1111111111111111 0.04285714285714286 0.01  0.1666666666666667 0.04285714285714286 0.01  0.2222222222222222 0.04285714285714286 0.01  0.2777777777777778 0.04285714285714286 0.01  0.3333333333333333 0.04285714285714286 0.01  0.3888888888888889 0.04285714285714286 0.01  0.4444444444444444 0.04285714285714286 0.01  0.5 0.04285714285714286 0.01  0.5555555555555556 0.04285714285714286 0.01  0.6111111111111112 0.04285714285714286 0.01  0.6666666666666666 0.04285714285714286 0.01  0.7222222222222222 0.04285714285714286 0.01  0.7777777777777778 0.04285714285714286 0.01  0.8333333333333334 0.04285714285714286 0.01  0.8888888888888888 0.04285714285714286 0.01  0.9444444444444444 0.04285714285714286 0.01  1 0.04285714285714286 0.01  0 0.05714285714285715 0.01  0.05555555555555555 0.05714285714285715 0.01  0.1111111111111111 0.05714285714285715 0.01  0.1666666666666667 0.05714285714285715 0.01  0.2222222222222222 0.05714285714285715 0.01  0.2777777777777778 0.05714285714285715 0.01  0.3333333333333333 0.05714285714285715 0.01  0.3888888888888889 0.05714285714285715 0.01  0.4444444444444444 0.05714285714285715 0.01  0.5 0.05714285714285715 0.01  0.5555555555555556 0.05714285714285715 0.01  0.6111111111111112 0.05714285714285715 0.01  0.6666666666666666 0.05714285714285715 0.01  0.7222222222222222 0.05714285714285715 0.01  0.7777777777777778 0.05714285714285715 0.01  0.8333333333333334 0.05714285714285715 0.01  0.8888888888888888 0.05714285714285715 0.01  0.9444444444444444 0.05714285714285715 0.01  1 0.05714285714285715 0.01  0 0.07142857142857142 0.01  0.05555555555555555 0.07142857142857142 0.01  0.1111111111111111 0.07142857142857142 0.01  0.1666666666666667 0.07142857142857142 0.01  0.2222222222222222 0.07142857142857142 0.01  0.2777777777777778 0.07142857142857142 0.01  0.3333333333333333 0.07142857142857142 0.01  0.3888888888888889 0.07142857142857142 0.01  0.4444444444444444 0.07142857142857142 0.01  0.5 0.07142857142857142 0.01  0.5555555555555556 0.07142857142857142 0.01  0.6111111111111112 0.07142857142857142 0.01  0.6666666666666666 0.07142857142857142 0.01  0.7222222222222222 0.07142857142857142 0.01  0.7777777777777778 0.07142857142857142 0.01  0.8333333333333334 0.07142857142857142 0.01  0.8888888888888888 0.07142857142857142 0.01  
[...]
<PointData  Vectors="f_36"> 
<DataArray  type="Float64"  Name="f_36"  NumberOfComponents="3" format="ascii">0.0000000000000000e+00 0.0000000000000000e+00 0.0000000000000000e+00  -1.4216338520597329e-03 2.8171616108686633e-03 -6.5686544190641577e-03  -1.6028276983409081e-03 5.3816503085454504e-03 -1.4082786037113760e-02  -1.2108033450728502e-03 7.3515975126621372e-03 -2.0423309475721518e-02  -4.4084445126692760e-04 8.2644675840130195e-03 -2.4074001697316834e-02  6.1031713817795061e-04 7.7315845742219075e-03 -2.3614982190341385e-02  1.4212099111536604e-03 5.8623908975797591e-03 -1.8291643080489653e-02  1.3082704703982237e-03 3.7382292255520064e-03 -1.1072101592303233e-02  5.4637510746502547e-04 2.5559705824294639e-03 -6.9183617305590382e-03  1.0428882451776364e-04 2.2701266481308575e-03 -6.4802001436513081e-03  3.9848546175250745e-04 1.9001892249193018e-03 -6.2643651608616131e-03  8.1615121592598888e-04 9.1177607181908669e-04 -3.4318494642401214e-03  6.9123989507060006e-04 -1.4574391779998327e-04 2.4136645761890275e-04  3.8149516735208589e-04 -7.2995685299204833e-04 1.9233042705736763e-03  3.4594148743894213e-04 -1.1282108379157114e-03 2.8295055270369822e-03  3.8176244977096625e-04 -1.5939995632890331e-03 4.2686998288017156e-03  3.0349575595050709e-04 -1.9998890238343454e-03 5.5817979824715489e-03  1.3564553837233748e-04 -2.2650560704235677e-03 6.4221742271798957e-03  -3.1698410216880931e-05 -2.4696853914170629e-03 6.6982541054133203e-03  0.0000000000000000e+00 0.0000000000000000e+00 0.0000000000000000e+00  -1.3689417094118275e-03 2.3915138923173191e-03 -4.0643660695919561e-03  -1.5571010492474136e-03 4.7528541962405047e-03 -9.2452248631437282e-03  -1.1998971000672860e-03 6.6438899260234194e-03 -1.3767030834151322e-02  -4.8654165972386349e-04 7.6058994500267270e-03 -1.6536896424175173e-02  4.9755332394620718e-04 7.2488807097719262e-03 -1.6509892401618754e-02  1.3205696784864549e-03 5.6024483771331271e-03 -1.2893710051630380e-02  1.3090374478206368e-03 3.6073605512372073e-03 -7.6507654437041319e-03  5.9649144375227602e-04 2.4243602656039724e-03 -4.5868386955509322e-03  1.0472572459158402e-04 2.1215079210727466e-03 -4.3918545190401908e-03  3.2366375840888237e-04 1.8182203916262761e-03 -4.4924821733583510e-03  7.5352756912445897e-04 9.4375604574566867e-04 -2.5787838750975724e-03  6.9417318499124538e-04 -5.2260521414952208e-05 1.1590089063964310e-04  3.7409665242956836e-04 -6.2356506128882078e-04 1.2850429461321667e-03  3.1031966597724111e-04 -9.9417504332067878e-04 1.8224696899098399e-03  3.5908835208026861e-04 -1.4239075318853967e-03 2.8188877262794688e-03  3.0014371091813231e-04 -1.8103155332840641e-03 3.7619465023453771e-03  1.6572786425383159e-04 -2.0771901735139394e-03 4.3890197272234551e-03  -5.4183029664004867e-05 -2.3446507282535133e-03 4.7261903398388948e-03  0.0000000000000000e+00 0.0000000000000000e+00 0.0000000000000000e+00  -8.3376266929149000e-04 1.4510918800537101e-03 -1.7097080244876570e-03  -9.6986122651109073e-04 3.0188417001219981e-03 -4.1607850932086224e-03  -7.5854553318166961e-04 4.3474151693126658e-03 -6.3660273026209437e-03  -3.2518631976224515e-04 5.0925584097563596e-03 -7.7902573949848522e-03  2.7650293261779590e-04 4.9592577105947852e-03 -7.9196165124913228e-03  8.0144520571779178e-04 3.8945977876337595e-03 -6.2525989431790720e-03  8.2941787073490317e-04 2.4979803672543328e-03 -3.6538794462586785e-03  3.9628682733004110e-04 1.6302062901681336e-03 -2.0970768240661432e-03  6.7907675288549294e-05 1.4250033259596434e-03 -2.0392885456702731e-03  1.7999654211918825e-04 1.2766624847730312e-03 -2.2030147448986485e-03  4.5529530103026401e-04 7.1469745753095337e-04 -1.3242166548015058e-03  4.4179892714734970e-04 1.6843017805532640e-05 3.2259173271775167e-05  2.3692070523393058e-04 -3.8418631320452315e-04 6.0100862198139606e-04  1.8533777921106800e-04 -6.2316909191737976e-04 8.1636521944187493e-04  2.2067693862982377e-04 -9.1045603794826435e-04 1.2911726190782764e-03  1.9127850005635263e-04 -1.1813814419550745e-03 1.7587668273314054e-03  1.2786343656819198e-04 -1.3707027714033833e-03 2.0793087154130311e-03  -1.4954841680190896e-04 -1.6854757224854637e-03 2.3431862965191501e-03  0.0000000000000000e+00 0.0000000000000000e+00 0.0000000000000000e+00  -8.1656190446415174e-07 8.4832210866907724e-08 -1.5611964160068825e-06  -1.2466940314895496e-06 2.5454114409571956e-07 -4.7952424046948706e-06  -1.3232180484511447e-06 4.8715835509875641e-07 -8.7092822261263522e-06  -1.1035483572619255e-06 7.5237294639823730e-07 -1.2361871442511655e-05  -6.6806007632871085e-07 1.0263204364888084e-06 -1.5018309882233169e-05  -1.0463347733259526e-07 1.2911981693406087e-06 -1.6195572168629624e-05  5.1032623028562573e-07 1.5361920781214307e-06 -1.5663241790391710e-05  1.1281370933416709e-06 1.7566191241995495e-06 -1.3377009408255305e-05  1.7243089009377807e-06 1.9512442964796322e-06 -9.3792660945716542e-06  2.2797713584123300e-06 2.1199068402684968e-06 -3.7530666940903011e-06  2.7704416618511000e-06 2.2633778597747053e-06 3.3593549845589563e-06  3.1755511881813325e-06 2.3843942501142826e-06 1.1737060627528396e-05  3.4888583239881654e-06 2.4874807845634671e-06 2.1115216391061632e-05  3.7150483498110598e-06 2.5771798035918611e-06 3.1238610491126003e-05  3.8620657329958893e-06 2.6570252840289897e-06 4.1873340019836618e-05  3.9420062030824200e-06 2.7299730862970897e-06 5.2809043915775315e-05  3.9731482429798456e-06 2.7982295674821637e-06 6.3878317097796440e-05  3.9789901957751695e-06 2.8626188996818806e-06 7.4974643596636520e-05  0.0000000000000000e+00 0.0000000000000000e+00 0.0000000000000000e+00  -7.9327104479554826e-07 1.1542262963008782e-07 -1.5459954139397016e-06  -1.2790920572763187e-06 2.6252025192885184e-07 -4.7715047328038281e-06  -1.3992958410839847e-06 4.7554212075120345e-07 -8.6792758681529752e-06  -1.2091383833960813e-06 7.2582724698249178e-07 -1.2324748637645941e-05  -7.8917499638486121e-07 9.9068780106996048e-07 -1.4973932096038474e-05  -2.2912844066663634e-07 1.2520971893783930e-06 -1.6144711482130694e-05  3.9052520812916853e-07 1.4973881537548071e-06 -1.5607331651366409e-05  1.0165781126912385e-06 1.7195053052173483e-06 -1.3317305379063260e-05  1.6225744939502804e-06 1.9163227032331027e-06 -9.3160854199072098e-06  2.1898798423120816e-06 2.0883569938273207e-06 -3.6859342664655591e-06  2.6945677023331033e-06 2.2368928757857364e-06 3.4309329761071359e-06  3.1140846985499177e-06 2.3638215529623768e-06 1.1813133607331767e-05  3.4401992926244658e-06 2.4724984318504532e-06 2.1195691754236164e-05  3.6773358209578603e-06 2.5672549993319640e-06 3.1323431307464236e-05  3.8334995973660274e-06 2.6516296512270301e-06 4.1962006558503905e-05  3.9203018388738378e-06 2.7281842071569243e-06 5.2900438642476120e-05  3.9557225378454465e-06 2.7987469169865650e-06 6.3970892282418348e-05  3.9629903168412833e-06 2.8639541089203390e-06 7.5066567162575303e-05  0.0000000000000000e+00 0.0000000000000000e+00 0.0000000000000000e+00  -9.2474105216908359e-04 -1.6182743774038634e-03 -2.5126440487740040e-03  -9.6826366950462917e-04 -3.3265531356946559e-03 -5.2873280838825172e-03  -7.0118323284619661e-04 -4.7960295116829029e-03 -7.5426906194132892e-03  -2.3511113838272594e-04 -5.6351075635998841e-03 -8.7657600720002730e-03  3.6650038702939835e-04 -5.5589955817499544e-03 -8.4961202192459159e-03  8.2802601222329534e-04 -4.5012752391206468e-03 -6.4469374393841331e-03  7.6101143666253493e-04 -3.0022598570210520e-03 -3.7303772485378717e-03  2.9869197911914857e-04 -1.9779368019354755e-03 -2.3265914167567106e-03  1.8719226149553360e-05 -1.6958562672293952e-03 -2.4326729898641432e-03  1.9516820498015702e-04 -1.5720803322281267e-03 -2.5368310347861191e-03  4.6452998443071109e-04 -1.0155448574256363e-03 -1.4455323158714497e-03  4.1278578591750006e-04 -2.0951342093413372e-04 1.8748326792841293e-05  2.5341838056703740e-04 3.5432844768885918e-04 6.5462644283675029e-04  2.5522387161286164e-04 7.5004630632637462e-04 1.1142846314568249e-03  2.7726948571752145e-04 1.1949093018261291e-03 1.8604341316573708e-03  2.1890714316448231e-04 1.6232093655518746e-03 2.5108905530725418e-03  1.0691756146287471e-04 1.9750749520864985e-03 2.9521109785255128e-03  -1.4168741787210970e-04 2.3649703438131868e-03 3.0430000674036006e-03  0.0000000000000000e+00 0.0000000000000000e+00 0.0000000000000000e+00  -1.4651157408791221e-03 -2.0932252682043127e-03 -4.9387257644116795e-03  -1.5712450295060894e-03 -4.4884083179151666e-03 -1.0409610062936376e-02  -1.1485699795220101e-03 -6.5870567270610173e-03 -1.4913972642693507e-02  -4.0858606499177033e-04 -7.8472599502852746e-03 -1.7398223062148853e-02  5.5034247459967401e-04 -7.8610332361079959e-03 -1.6976010764408599e-02  1.3181344326847154e-03 -6.5036787739338386e-03 -1.3125683668893710e-02  1.2551778596570178e-03 -4.4473853133966531e-03 -7.8696708825397206e-03  5.0983314772005018e-04 -2.9368609377581852e-03 -4.9441100522324404e-03  1.9619679729103647e-05 -2.4384575551148371e-03 -4.9056772894540777e-03  2.7925618802494476e-04 -2.2406459106761260e-03 -5.0247267113971922e-03  7.4032320198370806e-04 -1.5068831370363071e-03 -2.9809313835564015e-03  6.8553487072615536e-04 -3.9347004751383400e-04 -1.2721177175879588e-04  4.0728515369895554e-04 4.3566780073064888e-04 1.2495266915642713e-03  4.0033815971197506e-04 1.0144461460339380e-03 2.2066239689528702e-03  4.4785191132302093e-04 1.6389011084628903e-03 3.6680122267324406e-03  3.4921415944573513e-04 2.2512105219919944e-03 4.9710635747187010e-03  1.6698439494946523e-04 2.7755189292303591e-03 5.8647191593610495e-03  -3.7877636905621332e-05 3.3859396650960864e-03 6.1178916112161223e-03  0.0000000000000000e+00 0.0000000000000000e+00 0.0000000000000000e+00  -1.4840604725391440e-03 -2.0411975772108831e-03 -6.7983478310094910e-03  -1.6496480476705217e-03 -4.6044689506316632e-03 -1.4384775221545789e-02  -1.2410562035854822e-03 -6.8820708988976981e-03 -2.0732182794093942e-02  -5.0485768046547427e-04 -8.3070544702947002e-03 -2.4309351037320154e-02  4.7005823468639974e-04 -8.4313829125881867e-03 -2.3895629698143284e-02  1.3260268647737564e-03 -7.0827802526894018e-03 -1.8847774656438963e-02  1.3646292854815718e-03 -4.9168756354928140e-03 -1.1749721455448165e-02  5.9334231156166434e-04 -3.2515569753682051e-03 -7.4846845516822911e-03  -2.4017209585184102e-06 -2.6542731942440405e-03 -7.0354022021826253e-03  2.1064137040315391e-04 -2.4335786759656611e-03 -7.0168460470840617e-03  7.4454363721571559e-04 -1.6819300706851534e-03 -4.3252598368876379e-03  7.5245177616883527e-04 -5.0387887412553923e-04 -4.4894297633426097e-04  4.2277268141638845e-04 4.0102225686332337e-04 1.6500330176522284e-03  3.9131176329244632e-04 1.0332154947358210e-03 3.0919522355207568e-03  4.6568420553526812e-04 1.7032963520832967e-03 5.1165826449036649e-03  3.6258970179588157e-04 2.3672160132841183e-03 6.9635492091992277e-03  1.4200687746203326e-04 2.9374804412560748e-03 8.2707224680518658e-03  -3.7717805033702648e-05 3.6320685758633687e-03 8.8572336234434210e-03  0.0000000000000000e+00 0.0000000000000000e+00 0.0000000000000000e+00  -5.6904855646261563e-04 1.0983805226362244e-03 -6.3347341082346121e-03  -7.1189454274656809e-04 2.2410567654185544e-03 -1.3832667840732726e-02  -5.6277193413888213e-04 3.1335199003830316e-03 -2.0169984458685154e-02  -2.4320549411716176e-04 3.5835456194387291e-03 -2.3858246049033673e-02  2.0376605989906916e-04 3.4076714784410027e-03 -2.3482081098264170e-02  5.8120906693387442e-04 2.6134726482309840e-03 -1.8236771490802269e-02  5.8328235222566212e-04 1.6539065200226468e-03 -1.1028089368512578e-02  2.7656598074109553e-04 1.1016384887996161e-03 -6.8447077241521517e-03  6.7672537496030565e-05 9.8603312504807463e-04 -6.4109238084941855e-03  1.7713822614354882e-04 8.6086155588095280e-04 -6.2494468197433215e-03  3.7905500146921027e-04 4.4072810610673710e-04 -3.4641172553760632e-03  3.5683824093094756e-04 -4.2096323541317671e-05 2.1013913216408681e-04  2.1758790494620019e-04 -3.0532315813214462e-04 1.8966138089978185e-03  1.8446762909527645e-04 -4.6622440196306532e-04 2.7815283339462072e-03  1.9988229724758434e-04 -6.6355914351828892e-04 4.2047559789642874e-03  1.6263388332105587e-04 -8.4698427390547464e-04 5.5156858181262935e-03  5.7614724376032452e-05 -9.9321437925741656e-04 6.3548677934714502e-03  -7.1931979183823908e-05 -1.1700419507936360e-03 6.6306637059657019e-03  0.0000000000000000e+00 0.0000000000000000e+00 0.0000000000000000e+00  -6.1847406823697460e-04 9.6590814528195348e-04 -3.8968504104355457e-03  -7.5354802963557420e-04 1.9608855465599907e-03 -9.0526782148739968e-03  -5.9540517447525209e-04 2.7667689343167531e-03 -1.3557352247152541e-02  -2.6482729478170597e-04 3.1893560597287211e-03 -1.6340159189527161e-02  1.9456174654175921e-04 3.0613565047423359e-03 -1.6365733904835485e-02  5.9754079235755134e-04 2.3821249024840699e-03 -1.2806583686299382e-02  6.2683138361570941e-04 1.5346416981174571e-03 -7.5736538389687474e-03  3.1143142542628554e-04 1.0210308998581030e-03 -4.4932061611807975e-03  7.0923991938995581e-05 8.9247397598692210e-04 -4.3125250224778254e-03  1.6141471155908690e-04 7.7648308742725284e-04 -4.4652403464429599e-03  3.7624050686595228e-04 4.1428385400442912e-04 -2.5931776296402114e-03  3.7231508698408727e-04 -1.2740176792306433e-05 1.0220740468329572e-04  2.2084109084035409e-04 -2.5885903698793372e-04 1.2718836272289065e-03  1.7545505890930864e-04 -4.0984262767695338e-04 1.7851102186496445e-03  1.9653419918684676e-04 -5.8604062362678933e-04 2.7648274397519259e-03  1.6914665932266361e-04 -7.4938211333731787e-04 3.7045405528166359e-03  8.8573399277350664e-05 -8.7748690260881139e-04 4.3297493239439558e-03  -6.7345001262245625e-05 -1.0610583173884685e-03 4.6810105821089871e-03  0.0000000000000000e+00 0.0000000000000000e+00 0.0000000000000000e+00  -4.0837612944470773e-04 5.8691981089663476e-04 -1.5095567256320297e-03  -4.9694188591020640e-04 1.1974938688686853e-03 -3.8354313187200619e-03  -3.9476560189131754e-04 1.7121435945072858e-03 -5.9386583854189219e-03  -1.7949123813115387e-04 1.9955275445346287e-03 -7.3196231170642775e-03  1.1904653608864861e-04 1.9373145817062815e-03 -7.4860422271027629e-03  3.8680809386205386e-04 1.5270182295270094e-03 -5.9127402939896084e-03  4.1805285217590355e-04 9.9422737166828391e-04 -3.3996565255946932e-03  2.1459311063509972e-04 6.5779389135321048e-04 -1.8926729626422027e-03  4.7629148915665187e-05 5.6671506968592107e-04 -1.8759356264832394e-03  9.6420577545594277e-05 4.9674200314907334e-04 -2.0974252611050763e-03  2.3836100005543586e-04 2.7663967810531481e-04 -1.2818056578162119e-03  2.4481727159018831e-04 8.2864187451714976e-06 3.3808402525555346e-05  1.4404518320109411e-04 -1.5143809502454490e-04 5.7174927107531289e-04  1.0889933987703159e-04 -2.4877955672669824e-04 7.4777701130338871e-04  1.2454406293560221e-04 -3.5997642506952902e-04 1.1903859868734254e-03  1.1177411190704275e-04 -4.6395296129638272e-04 1.6380530846511472e-03  7.4392652217402402e-05 -5.4066814522972333e-04 1.9440938937064715e-03  -1.0196556778734193e-04 -6.9106611082895100e-04 2.2056348402574727e-03  0.0000000000000000e+00 0.0000000000000000e+00 0.0000000000000000e+00  -3.8354948111726942e-07 7.4328947093466429e-08 -1.5295649825162676e-06  -6.1219866244343758e-07 2.3773130893830141e-07 -4.7789998145490229e-06  -6.6061868287654800e-07 4.6241748098541378e-07 -8.7073474018299067e-06  -5.5993133100759468e-07 7.2020727573991825e-07 -1.2371775474302855e-05  -3.4935233707999511e-07 9.8779136675540506e-07 -1.5036731543763283e-05  -7.2176325744270683e-08 1.2479822171817548e-06 -1.6219021495399080e-05  2.3307452022506676e-07 1.4899637054040187e-06 -1.5688760292173893e-05  5.4098541064422870e-07 1.7083089831167697e-06 -1.3402665710456729e-05  8.3861335951182768e-07 1.9009597922564887e-06 -9.4039487094629156e-06  1.1166215751222775e-06 2.0674833664886670e-06 -3.7758628884190011e-06  1.3633986710315870e-06 2.2088529364850027e-06 3.3394241551184366e-06  1.5683431039055333e-06 2.3278896377550606e-06 1.1720730534825078e-05  1.7276821189546429e-06 2.4289000265933589e-06 2.1102670855280546e-05  1.8434759055687902e-06 2.5164274915057422e-06 3.1229641775341348e-05  1.9196358405814951e-06 2.5943730274803996e-06 4.1867569649427337e-05  1.9619533919329382e-06 2.6660331542841657e-06 5.2805886424404215e-05  1.9792029916561049e-06 2.7338125670633432e-06 6.3876934510209880e-05  1.9826453706083479e-06 2.7987460190349640e-06 7.4973594093894334e-05  0.0000000000000000e+00 0.0000000000000000e+00 0.0000000000000000e+00  -3.9612220003553130e-07 1.0082936248691075e-07 -1.5033921832920678e-06  -6.5756461474996279e-07 2.4636007438684905e-07 -4.7492702858220134e-06  -7.2605793519878752e-07 4.5823815851037525e-07 -8.6729840611350987e-06  -6.3699677603730614e-07 7.0618676182853211e-07 -1.2331938975523317e-05  -4.3063545485091323e-07 9.6736322408873924e-07 -1.4991233617875048e-05  -1.5189153141870129e-07 1.2245263467327893e-06 -1.6168400534830446e-05  1.5859215813970153e-07 1.4659828987158695e-06 -1.5633992262456490e-05  4.7339163790162903e-07 1.6850447807371069e-06 -1.3344532107352981e-05  7.7852684108620815e-07 1.8789842982178223e-06 -9.3425540004042940e-06  1.0644637583326279e-06 2.0475192030807322e-06 -3.7107441306180758e-06  1.3193567469674675e-06 2.1918518839809630e-06 3.4087880014518542e-06  1.5318618648757696e-06 2.3144363602379629e-06 1.1794591197811796e-05  1.6975065538929322e-06 2.4189421494408986e-06 2.1181139336197476e-05  1.8182834096740486e-06 2.5096581248240534e-06 3.1312720529040120e-05  1.8982466852438209e-06 2.5904258018440892e-06 4.1954797072859259e-05  1.9432228411805349e-06 2.6643435460218546e-06 5.2896219850695791e-05  1.9621289758320362e-06 2.7336210016721793e-06 6.3968896559250257e-05  1.9663225516577663e-06 2.7992372217535007e-06 7.5065663755231890e-05  0.0000000000000000e+00 0.0000000000000000e+00 0.0000000000000000e+00  -4.6175219886502466e-04 -5.7638286794282076e-04 -2.2316740224953080e-03  -5.1134240168579327e-04 -1.1683457815757253e-03 -4.7043598076068702e-03  -3.8715076806783536e-04 -1.6914359653548226e-03 -6.6717256151537160e-03  -1.5857783915538049e-04 -1.9958633424253603e-03 -7.7088402895678148e-03  1.4267302152484460e-04 -1.9789445644808074e-03 -7.4176419035480428e-03  3.9729180389414827e-04 -1.6146678762150948e-03 -5.5211534913778013e-03  4.0157426996320693e-04 -1.0871798189569721e-03 -3.0502765832061051e-03  1.7833512613671444e-04 -7.1687110298318730e-04 -1.8547264219193980e-03  1.3203214902201666e-05 -6.0512679030681488e-04 -2.0676314544261073e-03  8.2236582842499256e-05 -5.5652764109030218e-04 -2.2298204854851642e-03  2.3188190775658439e-04 -3.6323223243794130e-04 -1.2302329434113410e-03  2.2786288357901934e-04 -7.9937033416680397e-05 1.0421775186144982e-04  1.4166215348770958e-04 1.2383327372290104e-04 6.1882853342827722e-04  1.3342468855465181e-04 2.6715346443024693e-04 9.8208444752411763e-04  1.4820072005027485e-04 4.2317460639115795e-04 1.6424528527178371e-03  1.1898719014217677e-04 5.7470831568450236e-04 2.2101875109319723e-03  6.3576888970999314e-05 7.1338283685839371e-04 2.5750644020503467e-03  -1.1247760060528766e-04 8.7690491256250090e-04 2.5372173045792750e-03  0.0000000000000000e+00 0.0000000000000000e+00 0.0000000000000000e+00  -6.6433848445349424e-04 -9.1582730150691332e-04 -4.7662501880864237e-03  -7.7167791352167618e-04 -1.9909520977108774e-03 -1.0151323649725206e-02  -5.8696879497017432e-04 -2.9491714978509480e-03 -1.4541284571709653e-02  -2.4900055316038575e-04 -3.5392655535051248e-03 -1.6947029584025563e-02  1.9870186656229126e-04 -3.5710429736102831e-03 -1.6513983899576548e-02  5.8872925143160153e-04 -2.9780819145794053e-03 -1.2713595428309896e-02  6.0781585112038667e-04 -2.0518952677976840e-03 -7.5282992315403091e-03  2.6801013477577849e-04 -1.3547356097595559e-03 -4.6744219936694989e-03  5.7099229964914715e-06 -1.1123188582588294e-03 -4.7067482827189795e-03  1.0670760574244723e-04 -1.0188310123754084e-03 -4.8895955744644422e-03  3.4627877726226984e-04 -6.9404886296544808e-04 -2.8942732668241532e-03  3.4899299957803195e-04 -1.9413620669574889e-04 -7.6623368815419965e-05  2.0976535595064051e