<?xml version="1.0"?>
<VTKFile type="UnstructuredGrid"  version="0.1"  >
<UnstructuredGrid>
<Piece  NumberOfPoints="760" NumberOfCells="3024">
<Points>
<DataArray  type="Float64"  NumberOfComponents="3"  format="ascii">0 0 0  0.05555555555555555 0 0  0.1111111111111111 0 0  0.1666666666666667 0 0  0.2222222222222222 0 0  0.2777777777777778 0 0  0.3333333333333333 0 0  0.3888888888888889 0 0  0.4444444444444444 0 0  0.5 0 0  0.5555555555555556 0 0  0.6111111111111112 0 0  0.6666666666666666 0 0  0.7222222222222222 0 0  0.7777777777777778 0 0  0.8333333333333334 0 0  0.8888888888888888 0 0  0.9444444444444444 0 0  1 0 0  0 0.01428571428571429 0  0.05555555555555555 0.01428571428571429 0  0.1111111111111111 0.01428571428571429 0  0.1666666666666667 0.01428571428571429 0  0.2222222222222222 0.01428571428571429 0  0.2777777777777778 0.01428571428571429 0  0.3333333333333333 0.01428571428571429 0  0.3888888888888889 0.01428571428571429 0  0.4444444444444444 0.01428571428571429 0  0.5 0.01428571428571429 0  0.5555555555555556 0.01428571428571429 0  0.6111111111111112 0.01428571428571429 0  0.6666666666666666 0.01428571428571429 0  0.7222222222222222 0.01428571428571429 0  0.7777777777777778 0.01428571428571429 0  0.8333333333333334 0.01428571428571429 0  0.8888888888888888 0.01428571428571429 0  0.9444444444444444 0.01428571428571429 0  1 0.01428571428571429 0  0 0.02857142857142857 0  0.05555555555555555 0.02857142857142857 0  0.1111111111111111 0.02857142857142857 0  0.1666666666666667 0.02857142857142857 0  0.2222222222222222 0.02857142857142857 0  0.2777777777777778 0.02857142857142857 0  0.3333333333333333 0.02857142857142857 0  0.3888888888888889 0.02857142857142857 0  0.4444444444444444 0.02857142857142857 0  0.5 0.02857142857142857 0  0.5555555555555556 0.02857142857142857 0  0.6111111111111112 0.02857142857142857 0  0.6666666666666666 0.02857142857142857 0  0.7222222222222222 0.02857142857142857 0  0.7777777777777778 0.02857142857142857 0  0.8333333333333334 0.02857142857142857 0  0.8888888888888888 0.02857142857142857 0  0.9444444444444444 0.02857142857142857 0  1 0.02857142857142857 0  0 0.04285714285714286 0  0.05555555555555555 0.04285714285714286 0  0.1111111111111111 0.04285714285714286 0  0.1666666666666667 0.04285714285714286 0  0.2222222222222222 0.04285714285714286 0  0.2777777777777778 0.04285714285714286 0  0.3333333333333333 0.04285714285714286 0  0.3888888888888889 0.04285714285714286 0  0.4444444444444444 0.04285714285714286 0  0.5 0.04285714285714286 0  0.5555555555555556 0.04285714285714286 0  0.6111111111111112 0.04285714285714286 0  0.6666666666666666 0.04285714285714286 0  0.7222222222222222 0.04285714285714286 0  0.7777777777777778 0.04285714285714286 0  0.8333333333333334 0.04285714285714286 0  0.8888888888888888 0.04285714285714286 0  0.9444444444444444 0.04285714285714286 0  1 0.04285714285714286 0  0 0.05714285714285715 0  0.05555555555555555 0.05714285714285715 0  0.1111111111111111 0.05714285714285715 0  0.1666666666666667 0.05714285714285715 0  0.2222222222222222 0.05714285714285715 0  0.2777777777777778 0.05714285714285715 0  0.3333333333333333 0.05714285714285715 0  0.3888888888888889 0.05714285714285715 0  0.4444444444444444 0.05714285714285715 0  0.5 0.05714285714285715 0  0.5555555555555556 0.05714285714285715 0  0.6111111111111112 0.05714285714285715 0  0.6666666666666666 0.05714285714285715 0  0.7222222222222222 0.05714285714285715 0  0.7777777777777778 0.05714285714285715 0  0.8333333333333334 0.05714285714285715 0  0.8888888888888888 0.05714285714285715 0  0.9444444444444444 0.05714285714285715 0  1 0.05714285714285715 0  0 0.07142857142857142 0  0.05555555555555555 0.07142857142857142 0  0.1111111111111111 0.07142857142857142 0  0.1666666666666667 0.07142857142857142 0  0.2222222222222222 0.07142857142857142 0  0.2777777777777778 0.07142857142857142 0  0.3333333333333333 0.07142857142857142 0  0.3888888888888889 0.07142857142857142 0  0.4444444444444444 0.07142857142857142 0  0.5 0.07142857142857142 0  0.5555555555555556 0.07142857142857142 0  0.6111111111111112 0.07142857142857142 0  0.6666666666666666 0.07142857142857142 0  0.7222222222222222 0.07142857142857142 0  0.7777777777777778 0.07142857142857142 0  0.8333333333333334 0.07142857142857142 0  0.8888888888888888 0.07142857142857142 0  0.9444444444444444 0.07142857142857142 0  1 0.07142857142857142 0  0 0.08571428571428573 0  0.05555555555555555 0.08571428571428573 0  0.1111111111111111 0.08571428571428573 0  0.1666666666666667 0.08571428571428573 0  0.2222222222222222 0.08571428571428573 0  0.2777777777777778 0.08571428571428573 0  0.3333333333333333 0.08571428571428573 0  0.3888888888888889 0.08571428571428573 0  0.4444444444444444 0.08571428571428573 0  0.5 0.08571428571428573 0  0.5555555555555556 0.08571428571428573 0  0.6111111111111112 0.08571428571428573 0  0.6666666666666666 0.08571428571428573 0  0.7222222222222222 0.08571428571428573 0  0.7777777777777778 0.08571428571428573 0  0.8333333333333334 0.08571428571428573 0  0.8888888888888888 0.08571428571428573 0  0.9444444444444444 0.08571428571428573 0  1 0.08571428571428573 0  0 0.1 0  0.05555555555555555 0.1 0  0.1111111111111111 0.1 0  0.1666666666666667 0.1 0  0.2222222222222222 0.1 0  0.2777777777777778 0.1 0  0.3333333333333333 0.1 0  0.3888888888888889 0.1 0  0.4444444444444444 0.1 0  0.5 0.1 0  0.5555555555555556 0.1 0  0.6111111111111112 0.1 0  0.6666666666666666 0.1 0  0.7222222222222222 0.1 0  0.7777777777777778 0.1 0  0.8333333333333334 0.1 0  0.8888888888888888 0.1 0  0.9444444444444444 0.1 0  1 0.1 0  0 0 0.01  0.05555555555555555 0 0.01  0.1111111111111111 0 0.01  0.1666666666666667 0 0.01  0.2222222222222222 0 0.01  0.2777777777777778 0 0.01  0.3333333333333333 0 0.01  0.3888888888888889 0 0.01  0.4444444444444444 0 0.01  0.5 0 0.01  0.5555555555555556 0 0.01  0.6111111111111112 0 0.01  0.6666666666666666 0 0.01  0.7222222222222222 0 0.01  0.7777777777777778 0 0.01  0.8333333333333334 0 0.01  0.8888888888888888 0 0.01  0.9444444444444444 0 0.01  1 0 0.01  0 0.01428571428571429 0.01  0.05555555555555555 0.01428571428571429 0.01  0.1111111111111111 0.01428571428571429 0.01  0.1666666666666667 0.01428571428571429 0.01  0.2222222222222222 0.01428571428571429 0.01  0.2777777777777778 0.01428571428571429 0.01  0.3333333333333333 0.01428571428571429 0.01  0.3888888888888889 0.01428571428571429 0.01  0.4444444444444444 0.01428571428571429 0.01  0.5 0.01428571428571429 0.01  0.5555555555555556 0.01428571428571429 0.01  0.6111111111111112 0.01428571428571429 0.01  0.6666666666666666 0.01428571428571429 0.01  0.7222222222222222 0.01428571428571429 0.01  0.7777777777777778 0.01428571428571429 0.01  0.8333333333333334 0.01428571428571429 0.01  0.8888888888888888 0.01428571428571429 0.01  0.9444444444444444 0.01428571428571429 0.01  1 0.01428571428571429 0.01  0 0.02857142857142857 0.01  0.05555555555555555 0.02857142857142857 0.01  0.1111111111111111 0.02857142857142857 0.01  0.1666666666666667 0.02857142857142857 0.01  0.2222222222222222 0.02857142857142857 0.01  0.2777777777777778 0.02857142857142857 0.01  0.3333333333333333 0.02857142857142857 0.01  0.3888888888888889 0.02857142857142857 0.01  0.4444444444444444 0.02857142857142857 0.01  0.5 0.02857142857142857 0.01  0.5555555555555556 0.02857142857142857 0.01  0.6111111111111112 0.02857142857142857 0.01  0.6666666666666666 0.02857142857142857 0.01  0.7222222222222222 0.02857142857142857 0.01  0.7777777777777778 0.02857142857142857 0.01  0.8333333333333334 0.02857142857142857 0.01  0.8888888888888888 0.02857142857142857 0.01  0.9444444444444444 0.02857142857142857 0.01  1 0.02857142857142857 0.01  0 0.04285714285714286 0.01  0.05555555555555555 0.04285714285714286 0.01  0.1111111111111111 0.04285714285714286 0.01  0.1666666666666667 0.04285714285714286 0.01  0.2222222222222222 0.04285714285714286 0.01  0.2777777777777778 0.04285714285714286 0.01  0.3333333333333333 0.04285714285714286 0.01  0.3888888888888889 0.04285714285714286 0.01  0.4444444444444444 0.04285714285714286 0.01  0.5 0.04285714285714286 0.01  0.5555555555555556 0.04285714285714286 0.01  0.6111111111111112 0.04285714285714286 0.01  0.6666666666666666 0.04285714285714286 0.01  0.7222222222222222 0.04285714285714286 0.01  0.7777777777777778 0.04285714285714286 0.01  0.8333333333333334 0.04285714285714286 0.01  0.8888888888888888 0.04285714285714286 0.01  0.9444444444444444 0.04285714285714286 0.01  1 0.04285714285714286 0.01  0 0.05714285714285715 0.01  0.05555555555555555 0.05714285714285715 0.01  0.1111111111111111 0.05714285714285715 0.01  0.1666666666666667 0.05714285714285715 0.01  0.2222222222222222 0.05714285714285715 0.01  0.2777777777777778 0.05714285714285715 0.01  0.3333333333333333 0.05714285714285715 0.01  0.3888888888888889 0.05714285714285715 0.01  0.4444444444444444 0.05714285714285715 0.01  0.5 0.05714285714285715 0.01  0.5555555555555556 0.05714285714285715 0.01  0.6111111111111112 0.05714285714285715 0.01  0.6666666666666666 0.05714285714285715 0.01  0.7222222222222222 0.05714285714285715 0.01  0.7777777777777778 0.05714285714285715 0.01  0.8333333333333334 0.05714285714285715 0.01  0.8888888888888888 0.05714285714285715 0.01  0.9444444444444444 0.05714285714285715 0.01  1 0.05714285714285715 0.01  0 0.07142857142857142 0.01  0.05555555555555555 0.07142857142857142 0.01  0.1111111111111111 0.07142857142857142 0.01  0.1666666666666667 0.07142857142857142 0.01  0.2222222222222222 0.07142857142857142 0.01  0.2777777777777778 0.07142857142857142 0.01  0.3333333333333333 0.07142857142857142 0.01  0.3888888888888889 0.07142857142857142 0.01  0.4444444444444444 0.07142857142857142 0.01  0.5 0.07142857142857142 0.01  0.5555555555555556 0.07142857142857142 0.01  0.6111111111111112 0.07142857142857142 0.01  0.6666666666666666 0.07142857142857142 0.01  0.7222222222222222 0.07142857142857142 0.01  0.7777777777777778 0.07142857142857142 0.01  0.8333333333333334 0.07142857142857142 0.01  0.8888888888888888 0.07142857142857142 0.01  
[...]
<PointData  Vectors="f_36"> 
<DataArray  type="Float64"  Name="f_36"  NumberOfComponents="3" format="ascii">0.0000000000000000e+00 0.0000000000000000e+00 0.0000000000000000e+00  1.8237534748983329e-03 -3.6112828624539541e-03 8.6296418568616914e-03  1.8870575434484726e-03 -6.6612815431506206e-03 1.7954172394227235e-02  1.0186738170133278e-03 -8.4832249187727082e-03 2.4593516632616365e-02  -3.4119408577509808e-04 -8.4288567634932272e-03 2.5758101085782577e-02  -1.3926296494091476e-03 -6.6827788802743060e-03 2.0761447044801790e-02  -1.3226439762982320e-03 -4.6118343410494877e-03 1.3468462357893139e-02  -4.7110593522569597e-04 -3.6191128419814761e-03 9.8176785127100600e-03  -6.8477317887683775e-05 -3.5336293100109014e-03 1.0244433535015926e-02  -2.2274863157797044e-04 -3.2998940858192773e-03 9.9616233690751968e-03  -3.7150347453076041e-04 -2.7214428984823416e-03 8.4053150727103672e-03  -5.3728946458148888e-04 -1.9320926234009234e-03 6.3700926215937564e-03  -5.9335537929264455e-04 -1.0180851824110441e-03 3.4457036158644671e-03  -4.0131043293942389e-04 -3.3280828308149816e-04 1.1672741380254843e-03  -1.9535794629737285e-04 1.5096728359947597e-06 1.8905606692233755e-04  -1.5424672806952660e-04 1.7108469171988328e-04 -1.6780256422781962e-04  -1.8683316391774357e-04 3.5033974276221281e-04 -6.4690155256346229e-04  -1.5830822441447232e-04 5.1498618202391660e-04 -1.1622422132940074e-03  -1.0784134579191398e-04 5.9521744892231023e-04 -1.3926032086162695e-03  0.0000000000000000e+00 0.0000000000000000e+00 0.0000000000000000e+00  1.7621283281667177e-03 -3.0827477325807650e-03 5.4103207410598165e-03  1.8503695953362973e-03 -5.9244908476395273e-03 1.1946373596330028e-02  1.0605723864187163e-03 -7.7457355951242104e-03 1.6864473577330657e-02  -2.1895033999644130e-04 -7.8657850805194888e-03 1.8016623836716452e-02  -1.2820493441645696e-03 -6.3509664192158456e-03 1.4611915491631853e-02  -1.3238878457795746e-03 -4.4002111975628144e-03 9.2569055469861102e-03  -5.2312799429600531e-04 -3.3847264904145438e-03 6.5140526204805725e-03  -4.3498679650401167e-05 -3.2740756415183940e-03 6.9933835253114260e-03  -1.8623963827331909e-04 -3.0880486681709456e-03 6.9475329616537854e-03  -3.5373479322719007e-04 -2.5789895375370759e-03 5.9046235969160386e-03  -4.9676083207402650e-04 -1.8647595049614977e-03 4.5740680926678566e-03  -5.7380349631694827e-04 -1.0148122098775207e-03 2.5164914967621228e-03  -4.0388734980893580e-04 -3.5283315279683566e-04 8.7634305954638521e-04  -1.9309846155291470e-04 -1.9508679909711940e-05 2.0727309422301920e-04  -1.3710170791747403e-04 1.4395520011820171e-04 7.7619221279547396e-06  -1.7133769562250678e-04 3.0862725947128713e-04 -3.0730320353657711e-04  -1.5533344871302912e-04 4.6822218672517169e-04 -6.8501064818920620e-04  -9.2511169569136275e-05 5.6427678804927878e-04 -8.9793652322030107e-04  0.0000000000000000e+00 0.0000000000000000e+00 0.0000000000000000e+00  1.0763474864490385e-03 -1.8909595893775398e-03 2.3067729899680445e-03  1.1595336350330504e-03 -3.8111325567835351e-03 5.4467914475031945e-03  6.8857467712198713e-04 -5.1535796707141389e-03 7.9323346655860646e-03  -9.4790094396102892e-05 -5.3665052654370844e-03 8.6568602832701683e-03  -7.7101536499576940e-04 -4.3955311400184095e-03 7.0940554358729585e-03  -8.3510586253150872e-04 -3.0151055207019595e-03 4.4228938469224417e-03  -3.4753972390999955e-04 -2.2519193164444134e-03 3.0100232565991791e-03  -1.6402403869706968e-05 -2.1839516257972152e-03 3.3241761499107590e-03  -1.0062027235047171e-04 -2.0974131134253921e-03 3.3854763512484506e-03  -2.1598055093335279e-04 -1.7774325633494984e-03 2.9115536431897648e-03  -2.9856156302576634e-04 -1.3119666139394270e-03 2.3268288081750568e-03  -3.5263789835732201e-04 -7.2997531309281242e-04 1.3465285492054893e-03  -2.5354604643054338e-04 -2.6010728656207483e-04 5.4439065139959102e-04  -1.1878236352299938e-04 -2.4091338865518863e-05 2.3613197372662607e-04  -7.8149627651970125e-05 8.2841012111159069e-05 1.7185212540865910e-04  -1.0078801767987055e-04 1.9078961275137266e-04 3.9471962259838436e-05  -9.7803066261008167e-05 3.0344120535493873e-04 -1.4073584325896882e-04  -2.6686776084967367e-05 4.0529392667879081e-04 -2.6874254825891178e-04  0.0000000000000000e+00 0.0000000000000000e+00 0.0000000000000000e+00  2.3254819578392581e-06 -1.6383720163388629e-07 3.7662623764708840e-06  4.1363331986005549e-06 -4.8005526210338311e-07 1.3127524410145208e-05  5.4764385908266197e-06 -9.3720141702161433e-07 2.6857334477457152e-05  6.4156231237196741e-06 -1.4993762319900685e-06 4.3696826803456005e-05  7.0481635465304106e-06 -2.1415223399089320e-06 6.2648985263524928e-05  7.4598804410430039e-06 -2.8455861106595093e-06 8.2997915153334981e-05  7.7076513118779700e-06 -3.5994572600685986e-06 1.0423918775157438e-04  7.8241252751755277e-06 -4.3935715715515422e-06 1.2597369866391484e-04  7.8395886795701366e-06 -5.2185464359189394e-06 1.4786723696284893e-04  7.7890477937292195e-06 -6.0658658139021081e-06 1.6968379278170986e-04  7.7048669690150853e-06 -6.9294861519886583e-06 1.9128924712362639e-04  7.6137335055030634e-06 -7.8055772534164241e-06 2.1263210553418958e-04  7.5336412445693860e-06 -8.6914171318421006e-06 2.3372920382465112e-04  7.4718529577886689e-06 -9.5848335261859288e-06 2.5463058185313614e-04  7.4290703605343251e-06 -1.0483679217601617e-05 2.7539091452217043e-04  7.4039681695699191e-06 -1.1385535984508962e-05 2.9606104501253810e-04  7.3935120094227036e-06 -1.2287771967547298e-05 3.1668721649778759e-04  7.3914257616321159e-06 -1.3188301051432362e-05 3.3730343934340021e-04  0.0000000000000000e+00 0.0000000000000000e+00 0.0000000000000000e+00  2.1926830376057276e-06 -2.7577510828028028e-07 3.7279741162550008e-06  4.0908393701308795e-06 -5.6277178551636194e-07 1.3070854788409964e-05  5.5048745058648729e-06 -9.9434647219843459e-07 2.6790484538880741e-05  6.5011451057053971e-06 -1.5366089820142452e-06 4.3619712890329603e-05  7.1757070653933751e-06 -2.1651721649836025e-06 6.2562687473283435e-05  7.6185985842725991e-06 -2.8599888838123806e-06 8.2904357788310133e-05  7.8912738767600933e-06 -3.6063875629681340e-06 1.0414005880162817e-04  8.0278997915504363e-06 -4.3940791960594756e-06 1.2586956150391227e-04  8.0578321982311886e-06 -5.2145781390515060e-06 1.4775794752168954e-04  8.0164694365312708e-06 -6.0595922349705735e-06 1.6956944750588104e-04  7.9373886918405432e-06 -6.9226756047823779e-06 1.9117009825807670e-04  7.8482297141992091e-06 -7.7995768036930174e-06 2.1250827128150342e-04  7.7684487067597084e-06 -8.6868016220358301e-06 2.3360081020799131e-04  7.7063717464835078e-06 -9.5815849119004391e-06 2.5449781872759788e-04  7.6629469498829724e-06 -1.0481665497795611e-05 2.7525419050203494e-04  7.6368235100620861e-06 -1.1384662533976681e-05 2.9592116837087257e-04  7.6252702428362561e-06 -1.2287797310262200e-05 3.1654549601529340e-04  7.6227457387861317e-06 -1.3188628894840209e-05 3.3716146492984982e-04  0.0000000000000000e+00 0.0000000000000000e+00 0.0000000000000000e+00  1.1718244249618198e-03 2.0737318825106298e-03 3.3037718496429225e-03  1.1218676507921506e-03 4.1384095751513233e-03 6.7331626225517523e-03  5.7411547316450903e-04 5.6350189741986795e-03 9.0667244916284428e-03  -2.2181258828999996e-04 5.9664173677770847e-03 9.3255318573943081e-03  -8.1218015944004853e-04 5.0363111307152068e-03 7.3154475598526782e-03  -7.4702744342401315e-04 3.5715298277486478e-03 4.5749829374645782e-03  -2.3332522274546619e-04 2.6588181152950264e-03 3.4131027311682122e-03  -5.3547957288890260e-06 2.5225719655163452e-03 3.8421480244355435e-03  -1.1791415302313557e-04 2.4188126069517894e-03 3.7274598962649410e-03  -1.9955636255367375e-04 2.0717445572595084e-03 3.1388153894273785e-03  -2.8992184016455588e-04 1.6124141005102422e-03 2.5608667098730689e-03  -3.5040288119711846e-04 9.9969350354939626e-04 1.5322731236483214e-03  -2.7509501249716720e-04 4.0417245169603177e-04 6.2360041375091133e-04  -1.6672821467938643e-04 1.6153144037797386e-06 1.4549607019731262e-04  -1.3680583223203631e-04 -2.5949411983362130e-04 -1.1804444113671992e-04  -1.4793124898907097e-04 -5.1296400820021555e-04 -4.7788120839975079e-04  -1.0273599233925631e-04 -7.6267769891333131e-04 -8.2566315833925775e-04  1.9320770898931348e-05 -9.6381983368657234e-04 -8.9965101645895530e-04  0.0000000000000000e+00 0.0000000000000000e+00 0.0000000000000000e+00  1.8604637609177365e-03 2.6752099698137263e-03 6.4523492239474895e-03  1.8306034343144985e-03 5.5791886099932396e-03 1.3180151502095786e-02  9.6555422551518192e-04 7.7581981667163335e-03 1.7835914502647331e-02  -3.1222798275308474e-04 8.3804791078629752e-03 1.8511646167496981e-02  -1.2984856392496895e-03 7.2416371728739933e-03 1.4798906760985019e-02  -1.2469079191302355e-03 5.2473812700348909e-03 9.5142040691325452e-03  -4.1433347831617504e-04 3.8851333527286343e-03 7.0174334635559523e-03  5.9102899388575265e-06 3.5972567686928928e-03 7.6056220765130366e-03  -1.8204730842521092e-04 3.4452135119376025e-03 7.3667279858109702e-03  -3.2453549979089984e-04 2.9745470269656898e-03 6.1777871777915069e-03  -4.5610169825305199e-04 2.3368327756597808e-03 4.9750293106223756e-03  -5.6853431143320267e-04 1.4927947929148889e-03 2.9600190750392703e-03  -4.5610750987911823e-04 6.5034111530012527e-04 1.1214362256050264e-03  -2.7612889419968760e-04 5.8433897017397740e-05 8.6529055012205496e-05  -2.1850320120366426e-04 -3.2784750032781947e-04 -5.0634476651074262e-04  -2.3590606450421824e-04 -6.8939741110282530e-04 -1.2364347608268577e-03  -1.7138053497674319e-04 -1.0508844764950146e-03 -1.9434763367337012e-03  -5.7543495946366543e-05 -1.3599144109382700e-03 -2.1547139479344839e-03  0.0000000000000000e+00 0.0000000000000000e+00 0.0000000000000000e+00  1.9012123014230746e-03 2.6096443155992897e-03 8.8308687777895953e-03  1.9563405533666242e-03 5.7342297688200879e-03 1.8120134305771887e-02  1.1123407696420095e-03 8.1412909632694822e-03 2.4683485522264594e-02  -2.0275764637264421e-04 8.9428281331310946e-03 2.5893028325815019e-02  -1.3100894358000158e-03 7.8552047557448601e-03 2.1158248897383169e-02  -1.3767250792701856e-03 5.7641232276903886e-03 1.4081119289736288e-02  -5.0488352492409250e-04 4.2502630366651672e-03 1.0368146691025544e-02  4.8115472375166729e-05 3.8800053615057704e-03 1.0768252419653927e-02  -1.5255483988846637e-04 3.7112727012849271e-03 1.0411213237597255e-02  -3.2716279805654385e-04 3.2254128125408449e-03 8.7735941936380041e-03  -4.3782895290189305e-04 2.5592832834811885e-03 7.0292138234347304e-03  -5.8638509230565740e-04 1.6686122106546212e-03 4.2717348745920231e-03  -4.8965118569092988e-04 7.6272361955311745e-04 1.6823356382403719e-03  -2.9102163550981912e-04 1.1144691176131210e-04 1.2885897604665556e-04  -2.1384264065195936e-04 -3.1461158809289097e-04 -7.9359396118133308e-04  -2.3544161414994398e-04 -7.0634380943305184e-04 -1.8268755797020389e-03  -1.7327283297919013e-04 -1.0973930762143663e-03 -2.8224878753117209e-03  -6.7697188560534021e-05 -1.4442943577509038e-03 -3.2271801359372667e-03  0.0000000000000000e+00 0.0000000000000000e+00 0.0000000000000000e+00  7.3649663518066133e-04 -1.4160499727728368e-03 8.3334195107643907e-03  8.6213496244478963e-04 -2.7983024837732913e-03 1.7664050727235332e-02  5.2889901915657606e-04 -3.6594397209579648e-03 2.4347809408530912e-02  -5.3948436118812097e-05 -3.7034502476029022e-03 2.5606252287385774e-02  -5.6455396335883463e-04 -2.9622860024519078e-03 2.0690562681495175e-02  -6.2793619031718839e-04 -2.0180961722891023e-03 1.3396878173006138e-02  -2.9383188410492793e-04 -1.5448024037199779e-03 9.7007667966890771e-03  -7.2084647717175464e-05 -1.5214608076914485e-03 1.0133193818155167e-02  -9.6883773848286897e-05 -1.4467021248713669e-03 9.8906316785331988e-03  -1.4153596859323609e-04 -1.2013597213576936e-03 8.3608041629494711e-03  -2.0629916789870572e-04 -8.6607855713031925e-04 6.3570301785468844e-03  -2.5630096785251411e-04 -4.7216655234941598e-04 3.4527708564899601e-03  -1.9728925745984933e-04 -1.6545092790166098e-04 1.1708680191597658e-03  -1.1042488919392834e-04 -1.7464271151141593e-05 1.9148960567576598e-04  -9.4017855588345579e-05 5.1301294390806955e-05 -1.5693252408027506e-04  -1.1617153374809376e-04 1.3019794091150523e-04 -6.2848848401846275e-04  -1.0321252430344628e-04 2.1616040466829260e-04 -1.1429348533317275e-03  -6.7633238202702566e-05 2.7283378745424021e-04 -1.3742392702696372e-03  0.0000000000000000e+00 0.0000000000000000e+00 0.0000000000000000e+00  7.9948317619985389e-04 -1.2458779882509828e-03 5.1977703945591206e-03  9.1145237782207700e-04 -2.4495773061470852e-03 1.1722149837034524e-02  5.6326386219811926e-04 -3.2370693448134508e-03 1.6655659141687519e-02  -3.7098338028417258e-05 -3.3134084112554931e-03 1.7864158711479859e-02  -5.7476797385506214e-04 -2.6895659346622800e-03 1.4513748103862086e-02  -6.6215813512250339e-04 -1.8594283052526441e-03 9.1564214826764679e-03  -3.1767440211237947e-04 -1.4167745516562317e-03 6.3819422983699562e-03  -5.9811642858087313e-05 -1.3728597243697366e-03 6.8771306199044485e-03  -9.0389116059006987e-05 -1.3058415018904514e-03 6.8722299325976403e-03  -1.5428900067239283e-04 -1.0923169592120870e-03 5.8493488890057968e-03  -2.1468214421947472e-04 -7.9381697424102415e-04 4.5441181367664686e-03  -2.6701509407772690e-04 -4.4292784958217986e-04 2.5061791531188985e-03  -2.0800250071334328e-04 -1.6443693679543857e-04 8.6618769836468664e-04  -1.1238320233754095e-04 -2.3483843796775702e-05 2.0075984577940361e-04  -8.7576860286602009e-05 4.3377320636727572e-05 1.2589906049288618e-05  -1.1090649951212835e-04 1.1317062291214826e-04 -2.9369576039940394e-04  -1.0502248611983818e-04 1.8823277821174926e-04 -6.7015122616005012e-04  -6.3447644098711748e-05 2.4453638943931083e-04 -8.8757298953486918e-04  0.0000000000000000e+00 0.0000000000000000e+00 0.0000000000000000e+00  5.2818489081494287e-04 -7.5979890654648361e-04 2.0537066286102838e-03  6.0143137043250187e-04 -1.5016126255150935e-03 5.0565753246501824e-03  3.7583170953286912e-04 -2.0143605790163823e-03 7.4614896634987412e-03  -1.4127925747048798e-05 -2.0900998124337125e-03 8.1991793966016326e-03  -3.6842672943431556e-04 -1.7185705883293694e-03 6.7153905621206416e-03  -4.3502774282439774e-04 -1.1969072583149932e-03 4.1154558790710517e-03  -2.1263067667457220e-04 -9.0459722929705545e-04 2.7349969525443849e-03  -3.2257213004739809e-05 -8.6846791753959133e-04 3.0820886296863167e-03  -5.2218559549285650e-05 -8.2888014660456252e-04 3.1867086564171662e-03  -1.0238859770281362e-04 -6.9986884346678782e-04 2.7480843980854448e-03  -1.3920819700883612e-04 -5.1473028920865933e-04 2.2102454294414676e-03  -1.7249304193678791e-04 -2.9306596187520119e-04 1.2797823830796565e-03  -1.3563752059361195e-04 -1.1425559808642535e-04 5.0929864080696287e-04  -7.1388126688961027e-05 -2.1364634496548205e-05 2.2399020421984018e-04  -5.1988135690797165e-05 2.2581980567623714e-05 1.7944533953163949e-04  -6.7512235968795447e-05 6.5823107881374647e-05 6.1915861872457347e-05  -6.7983412751670329e-05 1.1139622285166796e-04 -1.1059828637278332e-04  -2.3820237316430625e-05 1.5400989169051009e-04 -2.3769766977417643e-04  0.0000000000000000e+00 0.0000000000000000e+00 0.0000000000000000e+00  1.1001991368913515e-06 -1.4480486345281684e-07 3.6720122924676709e-06  2.0256795688276998e-06 -4.5234685271563989e-07 1.3053143569655446e-05  2.7058768755948474e-06 -8.9760283107987657e-07 2.6802045917482190e-05  3.1835449548788694e-06 -1.4494751220772914e-06 4.3657817498116475e-05  3.5052960783226688e-06 -2.0833600196310151e-06 6.2622519585373422e-05  3.7144642884720597e-06 -2.7813000325059062e-06 8.2980670259968087e-05  3.8407769191323391e-06 -3.5303211163006720e-06 1.0422888260888752e-04  3.9012801719323956e-06 -4.3199466368904249e-06 1.2596884925296560e-04  3.9107361526877708e-06 -5.1406748237715670e-06 1.4786645919557360e-04  3.8862881358079138e-06 -5.9842207090032025e-06 1.6968563434971060e-04  3.8441087035695823e-06 -6.8445484265486838e-06 1.9129240575782339e-04  3.7976092255212219e-06 -7.7176810379823096e-06 2.1263552256060845e-04  3.7561589248842531e-06 -8.6006996684238677e-06 2.3373218969907175e-04  3.7238228583272274e-06 -9.4913489458871434e-06 2.5463286014944410e-04  3.7011379927804513e-06 -1.0387651573580200e-05 2.7539245840417124e-04  3.6874954351697678e-06 -1.1287516747110255e-05 2.9606192999396240e-04  3.6815115448082932e-06 -1.2188624742680453e-05 3.1668761015049985e-04  3.6802222409717401e-06 -1.3089014137685129e-05 3.3730372981949033e-04  0.0000000000000000e+00 0.0000000000000000e+00 0.0000000000000000e+00  1.0996535334176702e-06 -2.3063233963477547e-07 3.6110364027768410e-06  2.0865383776972788e-06 -5.1038530089980718e-07 1.2985349773709486e-05  2.8087483774827308e-06 -9.3832985158808666e-07 2.6726481825097762e-05  3.3190396145260179e-06 -1.4768260696229497e-06 4.3574131296251567e-05  3.6655003238939614e-06 -2.1011513545797071e-06 6.2531515868920553e-05  3.8935856282497640e-06 -2.7924062406244927e-06 8.2883782319194695e-05  4.0349301690348696e-06 -3.5362667592321261e-06 1.0412729996556760e-04  4.1073756475305002e-06 -4.3216392429058942e-06 1.2586293901488210e-04  4.1256717353556571e-06 -5.1392888094254524e-06 1.4775608698930104e-04  4.1073481969625754e-06 -5.9810799756910875e-06 1.6957080777937916e-04  4.0692833467569964e-06 -6.8407858234509660e-06 1.9117324101395130e-04  4.0254325676368931e-06 -7.7141689686351475e-06 2.1251200852793608e-04  3.9857080888225083e-06 -8.5978963635738393e-06 2.3360427298803690e-04  3.9545618107574257e-06 -9.4893354515829085e-06 2.5450059213666669e-04  3.9326229847213059e-06 -1.0386365872320239e-05 2.7525618702043742e-04  3.9192390566379995e-06 -1.1286882045403622e-05 2.9592242895145016e-04  3.9130986087178654e-06 -1.2188504076484905e-05 3.1654613077010927e-04  3.9116304475371544e-06 -1.3089121821016814e-05 3.3716174129392820e-04  0.0000000000000000e+00 0.0000000000000000e+00 0.0000000000000000e+00  5.9024504814296930e-04 7.3737090382475895e-04 2.9460678362370572e-03  6.0898981837299903e-04 1.4511731849093385e-03 6.0130483647955219e-03  3.5296679439388468e-04 1.9876530928376853e-03 8.0477111605710937e-03  -5.1730858007124375e-05 2.1204621509737765e-03 8.1963497455626658e-03  -3.8928613420883960e-04 1.8068439594930805e-03 6.2948860211450046e-03  -4.1242509241834832e-04 1.2929998940372073e-03 3.7811682819645859e-03  -1.6379027581560891e-04 9.6031631711630773e-04 2.8062842356727956e-03  -7.7055801547613507e-06 9.0186222560925807e-04 3.3207774773794220e-03  -4.5915984637061958e-05 8.6363164062491511e-04 3.2457954407306699e-03  -9.0965157967236833e-05 7.4028674156980301e-04 2.7116254215969319e-03  -1.3361602262584887e-04 5.7494302047298264e-04 2.2217477525612703e-03  -1.7373927098571343e-04 3.5667658641119060e-04 1.3051340670731854e-03  -1.4760530148596489e-04 1.4464086895338852e-04 5.0784022567385424e-04  -9.2020640428987731e-05 3.3501198691658900e-07 1.1838320255002877e-04  -7.2182421015166897e-05 -9.4684362811747893e-05 -8.1285623302270981e-05  -8.1821795404532835e-05 -1.8968627925453546e-04 -3.8802858164113815e-04  -6.7483577923671786e-05 -2.8931792961070941e-04 -6.8765482614422313e-04  1.6132098658451137e-05 -3.6859695143686696e-04 -7.0138031538652694e-04  0.0000000000000000e+00 0.0000000000000000e+00 0.0000000000000000e+00  8.5303068486545445e-04 1.1703659791576465e-03 6.2348411476372033e-03  9.2674996321627967e-04 2.4765476459595761e-03 1.2870739817179245e-02  5.4613566802405177e-04 3.4830614516072572e-03 1.7417027238244613e-02  -6.2237124970386030e-05 3.8006565936603734e-03 1.8046601891964182e-02  -5.8319812753101531e-04 3.3162748651346476e-03 1.4354849478688645e-02  -6.3502267436407918e-04 2.4201069811246117e-03 9.1205844418284013e-03  -2.5665863891302177e-04 1.7860070619785152e-03 6.6805442915234764e-03  -3.2200468230533480e-06 1.6390824434367101e-03 7.3360004644048528e-03  -6.1602517833872229e-05 1.5690317319817125e-03 7.1453361337757686e-03  -1.3129792317361926e-04 1.3596796383270561e-03 5.9791060575397322e-03  -1.9065884893359851e-04 1.0711693199812085e-03 4.8171082017653619e-03  -2.5725104918816532e-04 6.8830907916282626e-04 2.8520817047097843e-03  -2