<?xml version="1.0"?>
<VTKFile type="UnstructuredGrid"  version="0.1"  >
<UnstructuredGrid>
<Piece  NumberOfPoints="760" NumberOfCells="3024">
<Points>
<DataArray  type="Float64"  NumberOfComponents="3"  format="ascii">0 0 0  0.05555555555555555 0 0  0.1111111111111111 0 0  0.1666666666666667 0 0  0.2222222222222222 0 0  0.2777777777777778 0 0  0.3333333333333333 0 0  0.3888888888888889 0 0  0.4444444444444444 0 0  0.5 0 0  0.5555555555555556 0 0  0.6111111111111112 0 0  0.6666666666666666 0 0  0.7222222222222222 0 0  0.7777777777777778 0 0  0.8333333333333334 0 0  0.8888888888888888 0 0  0.9444444444444444 0 0  1 0 0  0 0.01428571428571429 0  0.05555555555555555 0.01428571428571429 0  0.1111111111111111 0.01428571428571429 0  0.1666666666666667 0.01428571428571429 0  0.2222222222222222 0.01428571428571429 0  0.2777777777777778 0.01428571428571429 0  0.3333333333333333 0.01428571428571429 0  0.3888888888888889 0.01428571428571429 0  0.4444444444444444 0.01428571428571429 0  0.5 0.01428571428571429 0  0.5555555555555556 0.01428571428571429 0  0.6111111111111112 0.01428571428571429 0  0.6666666666666666 0.01428571428571429 0  0.7222222222222222 0.01428571428571429 0  0.7777777777777778 0.01428571428571429 0  0.8333333333333334 0.01428571428571429 0  0.8888888888888888 0.01428571428571429 0  0.9444444444444444 0.01428571428571429 0  1 0.01428571428571429 0  0 0.02857142857142857 0  0.05555555555555555 0.02857142857142857 0  0.1111111111111111 0.02857142857142857 0  0.1666666666666667 0.02857142857142857 0  0.2222222222222222 0.02857142857142857 0  0.2777777777777778 0.02857142857142857 0  0.3333333333333333 0.02857142857142857 0  0.3888888888888889 0.02857142857142857 0  0.4444444444444444 0.02857142857142857 0  0.5 0.02857142857142857 0  0.5555555555555556 0.02857142857142857 0  0.6111111111111112 0.02857142857142857 0  0.6666666666666666 0.02857142857142857 0  0.7222222222222222 0.02857142857142857 0  0.7777777777777778 0.02857142857142857 0  0.8333333333333334 0.02857142857142857 0  0.8888888888888888 0.02857142857142857 0  0.9444444444444444 0.02857142857142857 0  1 0.02857142857142857 0  0 0.04285714285714286 0  0.05555555555555555 0.04285714285714286 0  0.1111111111111111 0.04285714285714286 0  0.1666666666666667 0.04285714285714286 0  0.2222222222222222 0.04285714285714286 0  0.2777777777777778 0.04285714285714286 0  0.3333333333333333 0.04285714285714286 0  0.3888888888888889 0.04285714285714286 0  0.4444444444444444 0.04285714285714286 0  0.5 0.04285714285714286 0  0.5555555555555556 0.04285714285714286 0  0.6111111111111112 0.04285714285714286 0  0.6666666666666666 0.04285714285714286 0  0.7222222222222222 0.04285714285714286 0  0.7777777777777778 0.04285714285714286 0  0.8333333333333334 0.04285714285714286 0  0.8888888888888888 0.04285714285714286 0  0.9444444444444444 0.04285714285714286 0  1 0.04285714285714286 0  0 0.05714285714285715 0  0.05555555555555555 0.05714285714285715 0  0.1111111111111111 0.05714285714285715 0  0.1666666666666667 0.05714285714285715 0  0.2222222222222222 0.05714285714285715 0  0.2777777777777778 0.05714285714285715 0  0.3333333333333333 0.05714285714285715 0  0.3888888888888889 0.05714285714285715 0  0.4444444444444444 0.05714285714285715 0  0.5 0.05714285714285715 0  0.5555555555555556 0.05714285714285715 0  0.6111111111111112 0.05714285714285715 0  0.6666666666666666 0.05714285714285715 0  0.7222222222222222 0.05714285714285715 0  0.7777777777777778 0.05714285714285715 0  0.8333333333333334 0.05714285714285715 0  0.8888888888888888 0.05714285714285715 0  0.9444444444444444 0.05714285714285715 0  1 0.05714285714285715 0  0 0.07142857142857142 0  0.05555555555555555 0.07142857142857142 0  0.1111111111111111 0.07142857142857142 0  0.1666666666666667 0.07142857142857142 0  0.2222222222222222 0.07142857142857142 0  0.2777777777777778 0.07142857142857142 0  0.3333333333333333 0.07142857142857142 0  0.3888888888888889 0.07142857142857142 0  0.4444444444444444 0.07142857142857142 0  0.5 0.07142857142857142 0  0.5555555555555556 0.07142857142857142 0  0.6111111111111112 0.07142857142857142 0  0.6666666666666666 0.07142857142857142 0  0.7222222222222222 0.07142857142857142 0  0.7777777777777778 0.07142857142857142 0  0.8333333333333334 0.07142857142857142 0  0.8888888888888888 0.07142857142857142 0  0.9444444444444444 0.07142857142857142 0  1 0.07142857142857142 0  0 0.08571428571428573 0  0.05555555555555555 0.08571428571428573 0  0.1111111111111111 0.08571428571428573 0  0.1666666666666667 0.08571428571428573 0  0.2222222222222222 0.08571428571428573 0  0.2777777777777778 0.08571428571428573 0  0.3333333333333333 0.08571428571428573 0  0.3888888888888889 0.08571428571428573 0  0.4444444444444444 0.08571428571428573 0  0.5 0.08571428571428573 0  0.5555555555555556 0.08571428571428573 0  0.6111111111111112 0.08571428571428573 0  0.6666666666666666 0.08571428571428573 0  0.7222222222222222 0.08571428571428573 0  0.7777777777777778 0.08571428571428573 0  0.8333333333333334 0.08571428571428573 0  0.8888888888888888 0.08571428571428573 0  0.9444444444444444 0.08571428571428573 0  1 0.08571428571428573 0  0 0.1 0  0.05555555555555555 0.1 0  0.1111111111111111 0.1 0  0.1666666666666667 0.1 0  0.2222222222222222 0.1 0  0.2777777777777778 0.1 0  0.3333333333333333 0.1 0  0.3888888888888889 0.1 0  0.4444444444444444 0.1 0  0.5 0.1 0  0.5555555555555556 0.1 0  0.6111111111111112 0.1 0  0.6666666666666666 0.1 0  0.7222222222222222 0.1 0  0.7777777777777778 0.1 0  0.8333333333333334 0.1 0  0.8888888888888888 0.1 0  0.9444444444444444 0.1 0  1 0.1 0  0 0 0.01  0.05555555555555555 0 0.01  0.1111111111111111 0 0.01  0.1666666666666667 0 0.01  0.2222222222222222 0 0.01  0.2777777777777778 0 0.01  0.3333333333333333 0 0.01  0.3888888888888889 0 0.01  0.4444444444444444 0 0.01  0.5 0 0.01  0.5555555555555556 0 0.01  0.6111111111111112 0 0.01  0.6666666666666666 0 0.01  0.7222222222222222 0 0.01  0.7777777777777778 0 0.01  0.8333333333333334 0 0.01  0.8888888888888888 0 0.01  0.9444444444444444 0 0.01  1 0 0.01  0 0.01428571428571429 0.01  0.05555555555555555 0.01428571428571429 0.01  0.1111111111111111 0.01428571428571429 0.01  0.1666666666666667 0.01428571428571429 0.01  0.2222222222222222 0.01428571428571429 0.01  0.2777777777777778 0.01428571428571429 0.01  0.3333333333333333 0.01428571428571429 0.01  0.3888888888888889 0.01428571428571429 0.01  0.4444444444444444 0.01428571428571429 0.01  0.5 0.01428571428571429 0.01  0.5555555555555556 0.01428571428571429 0.01  0.6111111111111112 0.01428571428571429 0.01  0.6666666666666666 0.01428571428571429 0.01  0.7222222222222222 0.01428571428571429 0.01  0.7777777777777778 0.01428571428571429 0.01  0.8333333333333334 0.01428571428571429 0.01  0.8888888888888888 0.01428571428571429 0.01  0.9444444444444444 0.01428571428571429 0.01  1 0.01428571428571429 0.01  0 0.02857142857142857 0.01  0.05555555555555555 0.02857142857142857 0.01  0.1111111111111111 0.02857142857142857 0.01  0.1666666666666667 0.02857142857142857 0.01  0.2222222222222222 0.02857142857142857 0.01  0.2777777777777778 0.02857142857142857 0.01  0.3333333333333333 0.02857142857142857 0.01  0.3888888888888889 0.02857142857142857 0.01  0.4444444444444444 0.02857142857142857 0.01  0.5 0.02857142857142857 0.01  0.5555555555555556 0.02857142857142857 0.01  0.6111111111111112 0.02857142857142857 0.01  0.6666666666666666 0.02857142857142857 0.01  0.7222222222222222 0.02857142857142857 0.01  0.7777777777777778 0.02857142857142857 0.01  0.8333333333333334 0.02857142857142857 0.01  0.8888888888888888 0.02857142857142857 0.01  0.9444444444444444 0.02857142857142857 0.01  1 0.02857142857142857 0.01  0 0.04285714285714286 0.01  0.05555555555555555 0.04285714285714286 0.01  0.1111111111111111 0.04285714285714286 0.01  0.1666666666666667 0.04285714285714286 0.01  0.2222222222222222 0.04285714285714286 0.01  0.2777777777777778 0.04285714285714286 0.01  0.3333333333333333 0.04285714285714286 0.01  0.3888888888888889 0.04285714285714286 0.01  0.4444444444444444 0.04285714285714286 0.01  0.5 0.04285714285714286 0.01  0.5555555555555556 0.04285714285714286 0.01  0.6111111111111112 0.04285714285714286 0.01  0.6666666666666666 0.04285714285714286 0.01  0.7222222222222222 0.04285714285714286 0.01  0.7777777777777778 0.04285714285714286 0.01  0.8333333333333334 0.04285714285714286 0.01  0.8888888888888888 0.04285714285714286 0.01  0.9444444444444444 0.04285714285714286 0.01  1 0.04285714285714286 0.01  0 0.05714285714285715 0.01  0.05555555555555555 0.05714285714285715 0.01  0.1111111111111111 0.05714285714285715 0.01  0.1666666666666667 0.05714285714285715 0.01  0.2222222222222222 0.05714285714285715 0.01  0.2777777777777778 0.05714285714285715 0.01  0.3333333333333333 0.05714285714285715 0.01  0.3888888888888889 0.05714285714285715 0.01  0.4444444444444444 0.05714285714285715 0.01  0.5 0.05714285714285715 0.01  0.5555555555555556 0.05714285714285715 0.01  0.6111111111111112 0.05714285714285715 0.01  0.6666666666666666 0.05714285714285715 0.01  0.7222222222222222 0.05714285714285715 0.01  0.7777777777777778 0.05714285714285715 0.01  0.8333333333333334 0.05714285714285715 0.01  0.8888888888888888 0.05714285714285715 0.01  0.9444444444444444 0.05714285714285715 0.01  1 0.05714285714285715 0.01  0 0.07142857142857142 0.01  0.05555555555555555 0.07142857142857142 0.01  0.1111111111111111 0.07142857142857142 0.01  0.1666666666666667 0.07142857142857142 0.01  0.2222222222222222 0.07142857142857142 0.01  0.2777777777777778 0.07142857142857142 0.01  0.3333333333333333 0.07142857142857142 0.01  0.3888888888888889 0.07142857142857142 0.01  0.4444444444444444 0.07142857142857142 0.01  0.5 0.07142857142857142 0.01  0.5555555555555556 0.07142857142857142 0.01  0.6111111111111112 0.07142857142857142 0.01  0.6666666666666666 0.07142857142857142 0.01  0.7222222222222222 0.07142857142857142 0.01  0.7777777777777778 0.07142857142857142 0.01  0.8333333333333334 0.07142857142857142 0.01  0.8888888888888888 0.07142857142857142 0.01  
[...]
<PointData  Vectors="f_36"> 
<DataArray  type="Float64"  Name="f_36"  NumberOfComponents="3" format="ascii">0.0000000000000000e+00 0.0000000000000000e+00 0.0000000000000000e+00  1.3868528451520773e-03 -2.6402960799748933e-03 5.6940578952208668e-03  2.0023198953224852e-03 -5.5898824372469331e-03 1.3614261768971170e-02  2.2350727080716459e-03 -8.8081283343660922e-03 2.3071521843914099e-02  1.9250435307901720e-03 -1.1692688867190498e-02 3.2415733777691851e-02  9.4697496570216792e-04 -1.3348201041914337e-02 3.8788373734149013e-02  -2.8052124391373697e-04 -1.3234060857747710e-02 3.9478672905842074e-02  -7.2970255204687126e-04 -1.2044445807107430e-02 3.5413959442241134e-02  -9.8369272548079828e-05 -1.1368465811108978e-02 3.2613539764494978e-02  3.1899086934821652e-04 -1.1619889435669085e-02 3.4298534139992537e-02  -4.1267413821839341e-05 -1.1687944662408280e-02 3.5442938164992742e-02  -1.6416542090304015e-04 -1.1354268524052183e-02 3.4156980403424526e-02  1.6289599984221556e-04 -1.1370247466322375e-02 3.4204083361321108e-02  3.1177651735310468e-04 -1.1752485175483759e-02 3.5884671541649822e-02  1.9659482721820767e-04 -1.2085855851192493e-02 3.7360040786884340e-02  5.7904093768550108e-05 -1.2253101360815085e-02 3.8227794754820507e-02  -1.0027010663818716e-04 -1.2323790568429440e-02 3.8858462327650847e-02  -5.7963105281728857e-04 -1.2402819342681684e-02 3.9349337309221501e-02  -1.2990635650345994e-03 -1.3097723669285317e-02 3.8899923001156599e-02  0.0000000000000000e+00 0.0000000000000000e+00 0.0000000000000000e+00  1.3181273612319787e-03 -2.2072070723029103e-03 3.3807042592471650e-03  1.8961835188744305e-03 -4.8571568728621823e-03 8.6579156748676379e-03  2.1363518698158941e-03 -7.8231068353908501e-03 1.5190109306417014e-02  1.8866030988745270e-03 -1.0560572751889532e-02 2.1876834377708477e-02  1.0044781442503073e-03 -1.2234891057605606e-02 2.6686937594460714e-02  -1.7464096046751650e-04 -1.2271248961530501e-02 2.7462592435477960e-02  -7.1497015358906995e-04 -1.1204338052599879e-02 2.4537716435050816e-02  -1.8234881855546390e-04 -1.0509860605640171e-02 2.2374280441565524e-02  3.2279837825983297e-04 -1.0710031490567472e-02 2.3780360659744204e-02  3.0194652216553923e-05 -1.0812015774386424e-02 2.4893583700716621e-02  -1.6720300342672320e-04 -1.0510249679674892e-02 2.3970225148544952e-02  1.3404021386784602e-04 -1.0491193931058899e-02 2.3995855650699765e-02  3.1829121837554394e-04 -1.0834269629846453e-02 2.5327511933416060e-02  2.2053593416431364e-04 -1.1158278393146082e-02 2.6515374384915035e-02  8.5631304297355374e-05 -1.1330686864186076e-02 2.7240061535130998e-02  -2.4676613001330796e-05 -1.1408587932770787e-02 2.7822818475474131e-02  -3.1761324890509159e-04 -1.1509294617314272e-02 2.8413064413692686e-02  -1.3150050510585477e-03 -1.2509774541996706e-02 2.8717485463259081e-02  0.0000000000000000e+00 0.0000000000000000e+00 0.0000000000000000e+00  8.0449704824039252e-04 -1.2968965925443340e-03 1.3735738114729857e-03  1.1768781061403620e-03 -2.9948447276002643e-03 3.8177321359566833e-03  1.3398341650490370e-03 -4.9824668009754358e-03 6.9536723324392863e-03  1.2073091116248118e-03 -6.8930302416659994e-03 1.0284253139043492e-02  6.8441998727776325e-04 -8.1461581924109072e-03 1.2831358781448617e-02  -4.1760360154182498e-05 -8.2722905387304767e-03 1.3447283786316998e-02  -4.1054091514063909e-04 -7.5432975260109501e-03 1.2123626253105551e-02  -1.0757375180583239e-04 -7.0065843715997672e-03 1.1084694967665492e-02  2.4305387424740214e-04 -7.1506141622487166e-03 1.1965380835696494e-02  8.7323622141846196e-05 -7.2725583134336368e-03 1.2778982601182909e-02  -6.2316107424898029e-05 -7.0642072853660419e-03 1.2456886434311542e-02  1.1748548715180361e-04 -7.0268707731921815e-03 1.2586190624698478e-02  2.4830540559361733e-04 -7.2672844871914865e-03 1.3425341308866792e-02  1.9432074957238324e-04 -7.5101078363492713e-03 1.4201524751670368e-02  1.1106565340181717e-04 -7.6471582060397714e-03 1.4736819578469727e-02  5.8133603901738479e-05 -7.7245840480429850e-03 1.5213338958206021e-02  -6.1557397720569207e-06 -7.7877697806521652e-03 1.5737962345770410e-02  -1.3957487495643841e-03 -9.1391616379028189e-03 1.6472950814591682e-02  0.0000000000000000e+00 0.0000000000000000e+00 0.0000000000000000e+00  1.8321815008248568e-05 -1.5867268510233778e-06 2.7274945089224938e-05  3.4834804692592886e-05 -5.0522405645114036e-06 1.0229200393748160e-04  4.9554029380385271e-05 -1.0356961451251815e-05 2.2136970588418508e-04  6.2476360865190678e-05 -1.7262622024694815e-05 3.7934146117571665e-04  7.3692025630862448e-05 -2.5574415968546869e-05 5.7123126672121928e-04  8.3326125367981155e-05 -3.5106173683850355e-05 7.9237982856524155e-04  9.1517217141894876e-05 -4.5685181684570275e-05 1.0385235062308981e-03  9.8392647476888351e-05 -5.7153713017081114e-05 1.3057969010539857e-03  1.0406047965643676e-04 -6.9367366663465921e-05 1.5906592550037448e-03  1.0862791908147339e-04 -8.2192537402802097e-05 1.8898451936167654e-03  1.1221291255356013e-04 -9.5506793743544501e-05 2.2004095306027080e-03  1.1493263107220285e-04 -1.0920104659527325e-04 2.5197554821045306e-03  1.1689870175075460e-04 -1.2317961276177422e-04 2.8456015109717681e-03  1.1822592011676407e-04 -1.3735932231169639e-04 3.1759754789925879e-03  1.1903605591846978e-04 -1.5167043531594046e-04 3.5092400349743614e-03  1.1945525570821852e-04 -1.6605814615865540e-04 3.8441104143738655e-03  1.1961252243478375e-04 -1.8048355215494690e-04 4.1796616608072790e-03  1.1964096616763556e-04 -1.9492511180873318e-04 4.5153405133307170e-03  0.0000000000000000e+00 0.0000000000000000e+00 0.0000000000000000e+00  1.7309141011621467e-05 -2.5746135490563000e-06 2.6989489675625933e-05  3.4484441153407848e-05 -5.9415127021051510e-06 1.0187913202207439e-04  4.9821007065027555e-05 -1.1143063285082241e-05 2.2090402608129222e-04  6.3298427872386477e-05 -1.7945376124525519e-05 3.7882801890340217e-04  7.5008721420474151e-05 -2.6160823483222689e-05 5.7067418765797539e-04  8.5077781070276516e-05 -3.5605159048594548e-05 7.9178346109305285e-04  9.3647959988999054e-05 -4.6105329706939451e-05 1.0378930840922649e-03  1.0085274851147478e-04 -5.7501616051120372e-05 1.3051378198483442e-03  1.0680474622237196e-04 -6.9648598447591742e-05 1.5899759528830760e-03  1.1161243224237353e-04 -8.2413763528899880e-05 1.8891410068591879e-03  1.1539611704435213e-04 -9.5675285499749514e-05 2.1996875705701923e-03  1.1827754034967831e-04 -1.0932335258527417e-04 2.5190187900225917e-03  1.2037180575069471e-04 -1.2326214593010078e-04 2.8448526397495716e-03  1.2179617807258983e-04 -1.3740909147466003e-04 3.1752166067047951e-03  1.2267546825471128e-04 -1.5169486466196612e-04 3.5084730685003831e-03  1.2313950666423252e-04 -1.6606478754783177e-04 3.8433367982651529e-03  1.2332103813151340e-04 -1.8048003537195681e-04 4.1788819433101225e-03  1.2335691485669455e-04 -1.9491792773577407e-04 4.5145538928766504e-03  0.0000000000000000e+00 0.0000000000000000e+00 0.0000000000000000e+00  9.0798261439847762e-04 1.4623316390490241e-03 2.1332239357505010e-03  1.2230321939899935e-03 3.2882276208022012e-03 5.0734697678221858e-03  1.3320678625509631e-03 5.4206466275291739e-03 8.5566668360290924e-03  1.1336788856853575e-03 7.4714787666617629e-03 1.1985656694087243e-02  5.6508899609627788e-04 8.8532977545527983e-03 1.4291901937106721e-02  -1.2662976049566721e-04 9.0829921471709974e-03 1.4488971935158173e-02  -3.7353113125220753e-04 8.3558965583714877e-03 1.2973073435612546e-02  6.8287782248608721e-06 7.6885108881156730e-03 1.2106472088348728e-02  2.8279374828344615e-04 7.7533283470282962e-03 1.3168243754175560e-02  8.0852464843432021e-05 7.9173871346300134e-03 1.3906161880870410e-02  -2.1444756354711609e-05 7.6894707846131153e-03 1.3503273982332043e-02  1.5070973581613606e-04 7.5299852989986153e-03 1.3647393276635250e-02  2.5561538017454110e-04 7.6613681528748014e-03 1.4432235014507775e-02  2.1828211997541779e-04 7.8610216484772642e-03 1.5153948699824334e-02  1.6783071718107584e-04 8.0050926386138078e-03 1.5697967908419132e-02  1.2091077894054937e-04 8.1566877163579566e-03 1.6282859016574468e-02  -6.4285169942698801e-05 8.4647364988413958e-03 1.6858529843402279e-02  -9.1561482891271357e-04 9.6669572970050875e-03 1.6757545883182519e-02  0.0000000000000000e+00 0.0000000000000000e+00 0.0000000000000000e+00  1.4202219193278924e-03 1.9004983186717045e-03 4.2513694273197573e-03  1.9382342721525649e-03 4.4333315425802416e-03 1.0007598442199559e-02  2.1144246537815698e-03 7.4006725107697976e-03 1.6784116616759694e-02  1.8104507515603145e-03 1.0300925908528956e-02 2.3418890768589919e-02  9.1053580356767732e-04 1.2337242052991146e-02 2.7872890725937863e-02  -2.1934351455605390e-04 1.2817003897943045e-02 2.8274143236644646e-02  -6.7890139989986006e-04 1.1916435033955432e-02 2.5291331021669937e-02  -9.5636168891139454e-05 1.0955823553101497e-02 2.3257468265119898e-02  4.0538091777839430e-04 1.0950171412584798e-02 2.4785960528392957e-02  8.9845051120928445e-05 1.1175128912295294e-02 2.5939149433883524e-02  -1.2477638573756781e-04 1.0898826555957314e-02 2.4959866250976327e-02  1.5319618325734631e-04 1.0657392311209780e-02 2.4856184555469080e-02  3.4147166653199191e-04 1.0802453766548217e-02 2.5984004685747172e-02  2.7967651848173088e-04 1.1072125537678853e-02 2.7061957089153436e-02  1.8486168026279678e-04 1.1281420379043184e-02 2.7813532269150693e-02  8.5808227804653277e-05 1.1509853875911870e-02 2.8626822658155249e-02  -2.1183168212519430e-04 1.2008830720534944e-02 2.9444869861955277e-02  -8.1433261931146850e-04 1.3876851704763646e-02 2.9206931845470688e-02  0.0000000000000000e+00 0.0000000000000000e+00 0.0000000000000000e+00  1.4047564418341657e-03 1.8457062545803021e-03 5.9503373086252165e-03  1.9639907765110348e-03 4.5188757816267367e-03 1.3951589026127713e-02  2.1804804948174000e-03 7.6640985752918760e-03 2.3352920538438779e-02  1.9301305739574043e-03 1.0786746984707140e-02 3.2550391722851207e-02  1.0539042736382712e-03 1.3051887926856671e-02 3.8806518965775562e-02  -1.4182904722847951e-04 1.3691941799267221e-02 3.9637359479195208e-02  -7.4405341844843177e-04 1.2814350918108409e-02 3.5838326387610760e-02  -1.9609544072911718e-04 1.1770859563183472e-02 3.2913574222121877e-02  4.5056900425179992e-04 1.1708768526517270e-02 3.4491108270909218e-02  1.5840956740003140e-04 1.1944840523140024e-02 3.5910669461820560e-02  -1.6482545146359961e-04 1.1669539461674617e-02 3.4652673411682489e-02  1.2125241752777720e-04 1.1399882063818081e-02 3.4326533605690532e-02  3.5959918951491710e-04 1.1530229853093606e-02 3.5621075974641897e-02  2.9607132069804409e-04 1.1810620887633884e-02 3.6962968454358404e-02  1.7247091936185092e-04 1.2039459511927756e-02 3.7908989016499924e-02  3.6289502551550339e-05 1.2301377958456148e-02 3.8925253908029603e-02  -4.0418489418575764e-04 1.2831789168505825e-02 4.0045992224288118e-02  -9.0758977522717357e-04 1.4952777807719744e-02 4.0489593549877460e-02  0.0000000000000000e+00 0.0000000000000000e+00 0.0000000000000000e+00  5.5312331579977477e-04 -1.0175241468696528e-03 5.4626042975961303e-03  8.6473035924058527e-04 -2.2953425970848856e-03 1.3309833245201687e-02  9.9050625561082324e-04 -3.7016450970822957e-03 2.2688955906502113e-02  8.8954643199823738e-04 -4.9999768234689048e-03 3.2001833401784502e-02  4.9988777884455663e-04 -5.7931305883671281e-03 3.8413590569163901e-02  -3.6596230213638754e-05 -5.7971728038537793e-03 3.9176503366058844e-02  -3.0071059452230437e-04 -5.2653148136706214e-03 3.5127363423270261e-02  -8.3379799631424622e-05 -4.9252547173567144e-03 3.2271761710481767e-02  1.2044957256989818e-04 -5.0439891801924257e-03 3.3943065631236419e-02  -2.1478593237767043e-05 -5.1155828309098718e-03 3.5131181525210851e-02  -1.1019999365387628e-04 -4.9678251904256730e-03 3.3844979623395652e-02  1.6619749090464152e-05 -4.9551581095796252e-03 3.3857835174793953e-02  8.8104102761225048e-05 -5.1289644814567492e-03 3.5529896867425179e-02  2.7846877638087469e-05 -5.2907843142448261e-03 3.7010984184715989e-02  -6.0547113476148455e-05 -5.3734402291449376e-03 3.7880041950953486e-02  -1.9300368956494995e-04 -5.4225715132191227e-03 3.8512171709165120e-02  -5.8691215090918584e-04 -5.5922871818199988e-03 3.9000717031094909e-02  -1.1890167515927223e-03 -6.3624397942533143e-03 3.8550629806266654e-02  0.0000000000000000e+00 0.0000000000000000e+00 0.0000000000000000e+00  5.9848379818880208e-04 -8.9460404547066002e-04 3.2150289052137347e-03  9.0331593042733231e-04 -2.0064157732051857e-03 8.4232069798978928e-03  1.0296193664237291e-03 -3.2570052263309773e-03 1.4880377394711113e-02  9.3138158412118903e-04 -4.4237234446525275e-03 2.1524828368179007e-02  5.3685412693709486e-04 -5.1572644293893166e-03 2.6346730606409848e-02  -2.0010604865594175e-05 -5.2005773460823204e-03 2.7165343408446216e-02  -3.2130397305286435e-04 -4.7564008173364390e-03 2.4245086101931938e-02  -1.1752205565647315e-04 -4.4487016381502013e-03 2.2034122364581361e-02  1.3019206159660732e-04 -4.5326659080502226e-03 2.3434081448947569e-02  8.5264549820328327e-06 -4.5977391510814234e-03 2.4592157297131212e-02  -1.0845949972537948e-04 -4.4792208759125490e-03 2.3669172826509981e-02  1.6981666250804342e-05 -4.4648372544320554e-03 2.3664561089545663e-02  1.0853762801933107e-04 -4.6121418001328256e-03 2.4992691535093942e-02  5.5416579721465710e-05 -4.7579295026676091e-03 2.6187711228292644e-02  -3.0470074212234463e-05 -4.8365191581464561e-03 2.6912415754726887e-02  -1.2233985467125367e-04 -4.8745562130088592e-03 2.7494339583341437e-02  -3.6231768676702028e-04 -4.9923548785043214e-03 2.8091563146785552e-02  -1.1081639224372313e-03 -5.8091999456736125e-03 2.8481310312860102e-02  0.0000000000000000e+00 0.0000000000000000e+00 0.0000000000000000e+00  3.9750612220088564e-04 -5.3845643178039853e-04 1.1754830686718746e-03  5.9694457321359364e-04 -1.2153944181898160e-03 3.4517807231222845e-03  6.8241033762071952e-04 -1.9988016107667195e-03 6.4038190396634954e-03  6.2403724269016693e-04 -2.7429585326069470e-03 9.5818015280800615e-03  3.7264235873460584e-04 -3.2281373867213054e-03 1.2052127364946949e-02  1.0954484467366408e-05 -3.2837360507175779e-03 1.2673731521778848e-02  -1.9544625497005361e-04 -3.0199094952682395e-03 1.1379369016476669e-02  -7.2317464868609663e-05 -2.8239716238177013e-03 1.0338263452197471e-02  1.0427647230762305e-04 -2.8737141780234583e-03 1.1220798725484147e-02  3.9038613292393976e-05 -2.9223715356126835e-03 1.2066584037338454e-02  -4.7034093475830982e-05 -2.8563859313739484e-03 1.1754030520899260e-02  3.0511572744967084e-05 -2.8495823641880311e-03 1.1864864011867336e-02  9.8318787137677890e-05 -2.9444747262281652e-03 1.2693178986235986e-02  6.8707606436703268e-05 -3.0430373544562644e-03 1.3463325428547144e-02  1.5283391979238777e-05 -3.1016577017078818e-03 1.3990869436469345e-02  -2.7560436339947681e-05 -3.1341098776524715e-03 1.4464438435888861e-02  -9.4925614070409800e-05 -3.1787205055534428e-03 1.4989814350999121e-02  -9.8774635515220979e-04 -3.8871166856811129e-03 1.5746611864249596e-02  0.0000000000000000e+00 0.0000000000000000e+00 0.0000000000000000e+00  8.6232194838035568e-06 -1.4768814306783067e-06 2.6513538190905306e-05  1.6900817806628075e-05 -4.9070288026383569e-06 1.0159772496925689e-04  2.4219291214106889e-05 -1.0154586735558266e-05 2.2075072981580870e-04  3.0646797576937184e-05 -1.7009852529689357e-05 3.7879847384438708e-04  3.6229260809536275e-05 -2.5275201304962287e-05 5.7076029241392263e-04  4.1027455099811845e-05 -3.4765331465902377e-05 7.9197561011055040e-04  4.5109503165414510e-05 -4.5308012457582526e-05 1.0381803558784282e-03  4.8539128146759091e-05 -5.6745016114199689e-05 1.3055095386426312e-03  5.1370452630210972e-05 -6.8930960848521562e-05 1.5904229780978182e-03  5.3655992211045781e-05 -8.1731881090900307e-05 1.8896552605908595e-03  5.5453466517357249e-05 -9.5025373169782407e-05 2.2002608884405801e-03  5.6820953803309284e-05 -1.0870201470441285e-04 2.5196431455547707e-03  5.7813660611315254e-05 -1.2266574695593649e-04 2.8455206305638588e-03  5.8487907397803208e-05 -1.3683331835368708e-04 3.1759210450795486e-03  5.8903456579306469e-05 -1.5113489243885153e-04 3.5092067791989341e-03  5.9122346900331141e-05 -1.6551534169899714e-04 3.8440928832994075e-03  5.9207853643715473e-05 -1.7993528031978213e-04 4.1796541886026167e-03  5.9224137732023067e-05 -1.9437176049871510e-04 4.5153349644231552e-03  0.0000000000000000e+00 0.0000000000000000e+00 0.0000000000000000e+00  8.7617455312562025e-06 -2.1969510496430654e-06 2.6076791201537164e-05  1.7645587614174744e-05 -5.4945345212095931e-06 1.0111489398489967e-04  2.5447511764675537e-05 -1.0669734352564220e-05 2.2022426629969864e-04  3.2305306868601151e-05 -1.7458268155017449e-05 3.7823053160521044e-04  3.8266199243772830e-05 -2.5661537962972760e-05 5.7015449318182732e-04  4.3393417437122300e-05 -3.5094929126693768e-05 7.9133619135636252e-04  4.7758554150082842e-05 -4.5586194713154122e-05 1.0375121807186737e-03  5.1429452465210574e-05 -5.6976225709102102e-05 1.3048174309591781e-03  5.4463791468108246e-05 -6.9119008030563505e-05 1.5897109822725799e-03  5.6916648432012236e-05 -8.1880935025254687e-05 1.8889265898165792e-03  5.8848637474187054e-05 -9.5139969825754831e-05 2.1995184182288562e-03  6.0321511719060294e-05 -1.0878643970595421e-04 2.5188895169110429e-03  6.1393920819992372e-05 -1.2272416406025377e-04 2.8447580983763389e-03  6.2125331926350682e-05 -1.3687015954235747e-04 3.1751515736795494e-03  6.2578947593540360e-05 -1.5115485735501613e-04 3.5084320300280670e-03  6.2820638263654126e-05 -1.6552324125319060e-04 3.8433140367399332e-03  6.2917675097641751e-05 -1.7993588286340537e-04 4.1788716468202378e-03  6.2938292453197279e-05 -1.9436903866769064e-04 4.5145492684072275e-03  0.0000000000000000e+00 0.0000000000000000e+00 0.0000000000000000e+00  4.4634094114887410e-04 5.1838474104165121e-04 1.8719256641961375e-03  6.2118000965366669e-04 1.1482469134445985e-03 4.4844561757319224e-03  6.9143489094860167e-04 1.8959142507321888e-03 7.5681068752705494e-03  6.1444104116185709e-04 2.6180580605053936e-03 1.0602396643727918e-02  3.4772448286784818e-04 3.1087541912620631e-03 1.2620761870648631e-02  -9.1869345161519775e-06 3.1972668809123923e-03 1.2718723783668227e-02  -1.8118905044061428e-04 2.9435601467611150e-03 1.1270691318438917e-02  -2.2783687965011028e-05 2.6949600520880346e-03 1.0504621357181318e-02  1.4513751448521351e-04 2.6966901212029343e-03 1.1599202950239269e-02  6.4154472098014703e-05 2.7431001888896405e-03 1.2333040683535856e-02  -1.2554840218707015e-05 2.6581124387604509e-03 1.1943959612343074e-02  6.3251442272347483e-05 2.5909288589986211e-03 1.2107033024941294e-02  1.2561075965968922e-04 2.6205110408456167e-03 1.2883909452284424e-02  1.0503979491010793e-04 2.6757523833591161e-03 1.3574572527880665e-02  6.3457127774294074e-05 2.7138201307235657e-03 1.4084843582779170e-02  2.1235776926097441e-05 2.7584541870646182e-03 1.4634004431836089e-02  -6.9949725426534669e-05 2.9021974558716031e-03 1.5138550124868394e-02  -7.0908903726832481e-04 3.4237531701431121e-03 1.4597931592922770e-02  0.0000000000000000e+00 0.0000000000000000e+00 0.0000000000000000e+00  6.3471036876915695e-04 8.2426835026468365e-04 4.0855691105860176e-03  9.1717924663737302e-04 1.9482090985367183e-03 9.7258966520832862e-03  1.0224728940589232e-03 3.2783856540397230e-03 1.6333199088683800e-02  9.1438397323947063e-04 4.5908678865559114e-03 2.2806065171284733e-02  5.1977983157988096e-04 5.5273765772858039e-03 2.7145979258507581e-02  -2.3225277568876651e-05 5.7683400781764257e-03 2.7498059892530582e-02  -3.0152044692055259e-04 5.3737712201844231e-03 2.4505683537302862e-02  -6.8854426024792770e-05 4.9255007565752176e-03 2.2473055186702829e-02  2.0269139755125259e-04 4.8980524124543979e-03 2.4029826626944650e-02  7.9008714904852940e-05 4.9886554155994757e-03 2.5220456997918597e-02  -5.6365024914550864e-05 4.8628630600711644e-03 2.4240308449225728e-02  5.9184064286149993e-05 4.7447185396405443e-03 2.4126094913123522e-02  1.6060330472875579e-04 4.7924344610599870e-03 2.5259799028559390e-02  1.2533874090674962e-04 4.8985571686884569