<?xml version="1.0"?>
<VTKFile type="UnstructuredGrid"  version="0.1"  >
<UnstructuredGrid>
<Piece  NumberOfPoints="760" NumberOfCells="3024">
<Points>
<DataArray  type="Float64"  NumberOfComponents="3"  format="ascii">0 0 0  0.05555555555555555 0 0  0.1111111111111111 0 0  0.1666666666666667 0 0  0.2222222222222222 0 0  0.2777777777777778 0 0  0.3333333333333333 0 0  0.3888888888888889 0 0  0.4444444444444444 0 0  0.5 0 0  0.5555555555555556 0 0  0.6111111111111112 0 0  0.6666666666666666 0 0  0.7222222222222222 0 0  0.7777777777777778 0 0  0.8333333333333334 0 0  0.8888888888888888 0 0  0.9444444444444444 0 0  1 0 0  0 0.01428571428571429 0  0.05555555555555555 0.01428571428571429 0  0.1111111111111111 0.01428571428571429 0  0.1666666666666667 0.01428571428571429 0  0.2222222222222222 0.01428571428571429 0  0.2777777777777778 0.01428571428571429 0  0.3333333333333333 0.01428571428571429 0  0.3888888888888889 0.01428571428571429 0  0.4444444444444444 0.01428571428571429 0  0.5 0.01428571428571429 0  0.5555555555555556 0.01428571428571429 0  0.6111111111111112 0.01428571428571429 0  0.6666666666666666 0.01428571428571429 0  0.7222222222222222 0.01428571428571429 0  0.7777777777777778 0.01428571428571429 0  0.8333333333333334 0.01428571428571429 0  0.8888888888888888 0.01428571428571429 0  0.9444444444444444 0.01428571428571429 0  1 0.01428571428571429 0  0 0.02857142857142857 0  0.05555555555555555 0.02857142857142857 0  0.1111111111111111 0.02857142857142857 0  0.1666666666666667 0.02857142857142857 0  0.2222222222222222 0.02857142857142857 0  0.2777777777777778 0.02857142857142857 0  0.3333333333333333 0.02857142857142857 0  0.3888888888888889 0.02857142857142857 0  0.4444444444444444 0.02857142857142857 0  0.5 0.02857142857142857 0  0.5555555555555556 0.02857142857142857 0  0.6111111111111112 0.02857142857142857 0  0.6666666666666666 0.02857142857142857 0  0.7222222222222222 0.02857142857142857 0  0.7777777777777778 0.02857142857142857 0  0.8333333333333334 0.02857142857142857 0  0.8888888888888888 0.02857142857142857 0  0.9444444444444444 0.02857142857142857 0  1 0.02857142857142857 0  0 0.04285714285714286 0  0.05555555555555555 0.04285714285714286 0  0.1111111111111111 0.04285714285714286 0  0.1666666666666667 0.04285714285714286 0  0.2222222222222222 0.04285714285714286 0  0.2777777777777778 0.04285714285714286 0  0.3333333333333333 0.04285714285714286 0  0.3888888888888889 0.04285714285714286 0  0.4444444444444444 0.04285714285714286 0  0.5 0.04285714285714286 0  0.5555555555555556 0.04285714285714286 0  0.6111111111111112 0.04285714285714286 0  0.6666666666666666 0.04285714285714286 0  0.7222222222222222 0.04285714285714286 0  0.7777777777777778 0.04285714285714286 0  0.8333333333333334 0.04285714285714286 0  0.8888888888888888 0.04285714285714286 0  0.9444444444444444 0.04285714285714286 0  1 0.04285714285714286 0  0 0.05714285714285715 0  0.05555555555555555 0.05714285714285715 0  0.1111111111111111 0.05714285714285715 0  0.1666666666666667 0.05714285714285715 0  0.2222222222222222 0.05714285714285715 0  0.2777777777777778 0.05714285714285715 0  0.3333333333333333 0.05714285714285715 0  0.3888888888888889 0.05714285714285715 0  0.4444444444444444 0.05714285714285715 0  0.5 0.05714285714285715 0  0.5555555555555556 0.05714285714285715 0  0.6111111111111112 0.05714285714285715 0  0.6666666666666666 0.05714285714285715 0  0.7222222222222222 0.05714285714285715 0  0.7777777777777778 0.05714285714285715 0  0.8333333333333334 0.05714285714285715 0  0.8888888888888888 0.05714285714285715 0  0.9444444444444444 0.05714285714285715 0  1 0.05714285714285715 0  0 0.07142857142857142 0  0.05555555555555555 0.07142857142857142 0  0.1111111111111111 0.07142857142857142 0  0.1666666666666667 0.07142857142857142 0  0.2222222222222222 0.07142857142857142 0  0.2777777777777778 0.07142857142857142 0  0.3333333333333333 0.07142857142857142 0  0.3888888888888889 0.07142857142857142 0  0.4444444444444444 0.07142857142857142 0  0.5 0.07142857142857142 0  0.5555555555555556 0.07142857142857142 0  0.6111111111111112 0.07142857142857142 0  0.6666666666666666 0.07142857142857142 0  0.7222222222222222 0.07142857142857142 0  0.7777777777777778 0.07142857142857142 0  0.8333333333333334 0.07142857142857142 0  0.8888888888888888 0.07142857142857142 0  0.9444444444444444 0.07142857142857142 0  1 0.07142857142857142 0  0 0.08571428571428573 0  0.05555555555555555 0.08571428571428573 0  0.1111111111111111 0.08571428571428573 0  0.1666666666666667 0.08571428571428573 0  0.2222222222222222 0.08571428571428573 0  0.2777777777777778 0.08571428571428573 0  0.3333333333333333 0.08571428571428573 0  0.3888888888888889 0.08571428571428573 0  0.4444444444444444 0.08571428571428573 0  0.5 0.08571428571428573 0  0.5555555555555556 0.08571428571428573 0  0.6111111111111112 0.08571428571428573 0  0.6666666666666666 0.08571428571428573 0  0.7222222222222222 0.08571428571428573 0  0.7777777777777778 0.08571428571428573 0  0.8333333333333334 0.08571428571428573 0  0.8888888888888888 0.08571428571428573 0  0.9444444444444444 0.08571428571428573 0  1 0.08571428571428573 0  0 0.1 0  0.05555555555555555 0.1 0  0.1111111111111111 0.1 0  0.1666666666666667 0.1 0  0.2222222222222222 0.1 0  0.2777777777777778 0.1 0  0.3333333333333333 0.1 0  0.3888888888888889 0.1 0  0.4444444444444444 0.1 0  0.5 0.1 0  0.5555555555555556 0.1 0  0.6111111111111112 0.1 0  0.6666666666666666 0.1 0  0.7222222222222222 0.1 0  0.7777777777777778 0.1 0  0.8333333333333334 0.1 0  0.8888888888888888 0.1 0  0.9444444444444444 0.1 0  1 0.1 0  0 0 0.01  0.05555555555555555 0 0.01  0.1111111111111111 0 0.01  0.1666666666666667 0 0.01  0.2222222222222222 0 0.01  0.2777777777777778 0 0.01  0.3333333333333333 0 0.01  0.3888888888888889 0 0.01  0.4444444444444444 0 0.01  0.5 0 0.01  0.5555555555555556 0 0.01  0.6111111111111112 0 0.01  0.6666666666666666 0 0.01  0.7222222222222222 0 0.01  0.7777777777777778 0 0.01  0.8333333333333334 0 0.01  0.8888888888888888 0 0.01  0.9444444444444444 0 0.01  1 0 0.01  0 0.01428571428571429 0.01  0.05555555555555555 0.01428571428571429 0.01  0.1111111111111111 0.01428571428571429 0.01  0.1666666666666667 0.01428571428571429 0.01  0.2222222222222222 0.01428571428571429 0.01  0.2777777777777778 0.01428571428571429 0.01  0.3333333333333333 0.01428571428571429 0.01  0.3888888888888889 0.01428571428571429 0.01  0.4444444444444444 0.01428571428571429 0.01  0.5 0.01428571428571429 0.01  0.5555555555555556 0.01428571428571429 0.01  0.6111111111111112 0.01428571428571429 0.01  0.6666666666666666 0.01428571428571429 0.01  0.7222222222222222 0.01428571428571429 0.01  0.7777777777777778 0.01428571428571429 0.01  0.8333333333333334 0.01428571428571429 0.01  0.8888888888888888 0.01428571428571429 0.01  0.9444444444444444 0.01428571428571429 0.01  1 0.01428571428571429 0.01  0 0.02857142857142857 0.01  0.05555555555555555 0.02857142857142857 0.01  0.1111111111111111 0.02857142857142857 0.01  0.1666666666666667 0.02857142857142857 0.01  0.2222222222222222 0.02857142857142857 0.01  0.2777777777777778 0.02857142857142857 0.01  0.3333333333333333 0.02857142857142857 0.01  0.3888888888888889 0.02857142857142857 0.01  0.4444444444444444 0.02857142857142857 0.01  0.5 0.02857142857142857 0.01  0.5555555555555556 0.02857142857142857 0.01  0.6111111111111112 0.02857142857142857 0.01  0.6666666666666666 0.02857142857142857 0.01  0.7222222222222222 0.02857142857142857 0.01  0.7777777777777778 0.02857142857142857 0.01  0.8333333333333334 0.02857142857142857 0.01  0.8888888888888888 0.02857142857142857 0.01  0.9444444444444444 0.02857142857142857 0.01  1 0.02857142857142857 0.01  0 0.04285714285714286 0.01  0.05555555555555555 0.04285714285714286 0.01  0.1111111111111111 0.04285714285714286 0.01  0.1666666666666667 0.04285714285714286 0.01  0.2222222222222222 0.04285714285714286 0.01  0.2777777777777778 0.04285714285714286 0.01  0.3333333333333333 0.04285714285714286 0.01  0.3888888888888889 0.04285714285714286 0.01  0.4444444444444444 0.04285714285714286 0.01  0.5 0.04285714285714286 0.01  0.5555555555555556 0.04285714285714286 0.01  0.6111111111111112 0.04285714285714286 0.01  0.6666666666666666 0.04285714285714286 0.01  0.7222222222222222 0.04285714285714286 0.01  0.7777777777777778 0.04285714285714286 0.01  0.8333333333333334 0.04285714285714286 0.01  0.8888888888888888 0.04285714285714286 0.01  0.9444444444444444 0.04285714285714286 0.01  1 0.04285714285714286 0.01  0 0.05714285714285715 0.01  0.05555555555555555 0.05714285714285715 0.01  0.1111111111111111 0.05714285714285715 0.01  0.1666666666666667 0.05714285714285715 0.01  0.2222222222222222 0.05714285714285715 0.01  0.2777777777777778 0.05714285714285715 0.01  0.3333333333333333 0.05714285714285715 0.01  0.3888888888888889 0.05714285714285715 0.01  0.4444444444444444 0.05714285714285715 0.01  0.5 0.05714285714285715 0.01  0.5555555555555556 0.05714285714285715 0.01  0.6111111111111112 0.05714285714285715 0.01  0.6666666666666666 0.05714285714285715 0.01  0.7222222222222222 0.05714285714285715 0.01  0.7777777777777778 0.05714285714285715 0.01  0.8333333333333334 0.05714285714285715 0.01  0.8888888888888888 0.05714285714285715 0.01  0.9444444444444444 0.05714285714285715 0.01  1 0.05714285714285715 0.01  0 0.07142857142857142 0.01  0.05555555555555555 0.07142857142857142 0.01  0.1111111111111111 0.07142857142857142 0.01  0.1666666666666667 0.07142857142857142 0.01  0.2222222222222222 0.07142857142857142 0.01  0.2777777777777778 0.07142857142857142 0.01  0.3333333333333333 0.07142857142857142 0.01  0.3888888888888889 0.07142857142857142 0.01  0.4444444444444444 0.07142857142857142 0.01  0.5 0.07142857142857142 0.01  0.5555555555555556 0.07142857142857142 0.01  0.6111111111111112 0.07142857142857142 0.01  0.6666666666666666 0.07142857142857142 0.01  0.7222222222222222 0.07142857142857142 0.01  0.7777777777777778 0.07142857142857142 0.01  0.8333333333333334 0.07142857142857142 0.01  0.8888888888888888 0.07142857142857142 0.01  
[...]
<PointData  Vectors="f_36"> 
<DataArray  type="Float64"  Name="f_36"  NumberOfComponents="3" format="ascii">0.0000000000000000e+00 0.0000000000000000e+00 0.0000000000000000e+00  9.3774611126757419e-04 -1.0728590354051927e-03 9.8498784029818075e-04  2.3216569258926179e-03 -3.7406588876694653e-03 7.7261495105194261e-03  2.4942089673229569e-03 -7.3173718205191609e-03 1.9863377750846730e-02  1.0087014434654363e-03 -9.4269589750513756e-03 2.7884833821394422e-02  -6.8336811793883645e-06 -9.6227090104703972e-03 2.7713652294569329e-02  1.0093474025580679e-04 -9.6444401269923704e-03 2.7467631420693597e-02  2.4838206954892593e-04 -9.9324456798211488e-03 2.8796039081716483e-02  2.3928266744224533e-04 -1.0191316556286047e-02 2.9730051075400304e-02  2.4706883689523662e-04 -1.0459553304605684e-02 3.0724056071113739e-02  2.6198472854101960e-04 -1.0742527066414055e-02 3.1775566084548582e-02  3.0243572949275818e-04 -1.1041668630064588e-02 3.2932319970541662e-02  2.1626102755785157e-04 -1.1306743328157976e-02 3.4228064249313836e-02  2.4843248276951293e-04 -1.1551470819977346e-02 3.4633406617378328e-02  6.4332292564363259e-04 -1.2207459857107087e-02 3.6271716097845901e-02  4.8041771201301036e-04 -1.3063740094059093e-02 4.0197989493753805e-02  -2.2478962709235735e-04 -1.3231821555200356e-02 4.1373777407043941e-02  -9.0828924282621818e-04 -1.3056199014440556e-02 4.0780626999309594e-02  -1.6606003263238188e-03 -1.3725479796766350e-02 3.9797056856981296e-02  0.0000000000000000e+00 0.0000000000000000e+00 0.0000000000000000e+00  7.9541993101807406e-04 -8.2899155330866013e-04 1.3477465995935517e-04  2.0999886842502521e-03 -3.1565228336671823e-03 4.4819839018254625e-03  2.4524228923848358e-03 -6.4765512601202002e-03 1.3289531071040427e-02  1.1370350689063479e-03 -8.5869208006220631e-03 1.9398950127907752e-02  3.7418057464950185e-06 -8.8626940256771158e-03 1.9120204618403448e-02  6.6263916804335126e-05 -8.8726346109429463e-03 1.8804429045394991e-02  2.5313168774413478e-04 -9.1327256116863799e-03 1.9857893838937529e-02  2.3830890221811406e-04 -9.3743163205778132e-03 2.0582307626777454e-02  2.4576725849831507e-04 -9.6197645522120550e-03 2.1337801788283626e-02  2.5899800692759031e-04 -9.8812221685515064e-03 2.2147106801244994e-02  2.9270712615196010e-04 -1.0160138682088151e-02 2.3028925892747989e-02  2.3741288305886588e-04 -1.0409440435399214e-02 2.4074091588769345e-02  2.2970761112495929e-04 -1.0613434354565493e-02 2.4332979164164659e-02  5.7112464246406741e-04 -1.1180325869366341e-02 2.5383938103116420e-02  5.3361837465381603e-04 -1.1999091298184718e-02 2.8444552155838868e-02  -9.9999464674455573e-05 -1.2221325917612101e-02 2.9509142092575377e-02  -6.1724656102629606e-04 -1.2091770251319503e-02 2.9247678114475824e-02  -1.6506221612827877e-03 -1.3079219992841062e-02 2.9130563254755014e-02  0.0000000000000000e+00 0.0000000000000000e+00 0.0000000000000000e+00  4.6393965598145163e-04 -3.9310436109848317e-04 -1.4434807297396924e-04  1.2692249693410042e-03 -1.8513346447328991e-03 1.7849897330648055e-03  1.5570570671631003e-03 -4.1527044581994074e-03 6.1881632482756101e-03  7.9183560650323713e-04 -5.7188144901858485e-03 9.4418426300732407e-03  3.6674100533747819e-05 -5.9271341683980842e-03 9.3224967652060595e-03  5.7688578376351858e-05 -5.8988902102343642e-03 9.1765580243848097e-03  1.9502295389837860e-04 -6.0758557493578551e-03 9.8358250188679969e-03  1.8800109227041842e-04 -6.2444650686183578e-03 1.0323736131102794e-02  1.9405130135088881e-04 -6.4099315864042739e-03 1.0824564697066717e-02  2.0430414314504507e-04 -6.5876921680782493e-03 1.1364331888361742e-02  2.2319004925176500e-04 -6.7819778268543201e-03 1.1939277389422404e-02  1.9940857433582316e-04 -6.9604791089326462e-03 1.2636931738621215e-02  1.8490228530220783e-04 -7.0696640794205637e-03 1.2888127736062044e-02  3.8008952162184789e-04 -7.4172522071393162e-03 1.3456987585479580e-02  4.0124893952568624e-04 -8.0200001982847109e-03 1.5188719407445981e-02  2.9298850151494426e-05 -8.2369729376348018e-03 1.5953473392906547e-02  -1.8527641263894656e-04 -8.1319562114503929e-03 1.6028553498783699e-02  -1.6305152814024752e-03 -9.4787115621831931e-03 1.6527957323360647e-02  0.0000000000000000e+00 0.0000000000000000e+00 0.0000000000000000e+00  1.7551748101895497e-05 -1.4862649152183852e-06 2.5999003993282785e-05  3.3468809760594196e-05 -4.7067085607534349e-06 9.7869087931215905e-05  4.7745215791514748e-05 -9.6230971297216842e-06 2.1232764011735179e-04  6.0367489296377226e-05 -1.6006754762305036e-05 3.6460621543689940e-04  7.1422465040370112e-05 -2.3672195557538278e-05 5.5012684503864893e-04  8.1010601171499312e-05 -3.2446900155026541e-05 7.6462514514438577e-04  8.9223165718050511e-05 -4.2172614024427388e-05 1.0041018778991009e-03  9.6152054979269723e-05 -5.2702583817392526e-05 1.2648040627421407e-03  1.0189407660013452e-04 -6.3901564119520489e-05 1.5432486185592439e-03  1.0654919407354967e-04 -7.5646343658601847e-05 1.8362301236026027e-03  1.1022061609424818e-04 -8.7826031750953316e-05 2.1408294204020399e-03  1.1301512654487765e-04 -1.0034223399104022e-04 2.4544230871284501e-03  1.1504445996998401e-04 -1.1310893648846189e-04 2.7746937655006099e-03  1.1642251239290658e-04 -1.2605294086092761e-04 3.0996486425137501e-03  1.1726368987729710e-04 -1.3911437869817975e-04 3.4276128011302945e-03  1.1769422026511037e-04 -1.5224606940531361e-04 3.7572328143401145e-03  1.1785321620122141e-04 -1.6541320811873852e-04 4.0875411117812189e-03  1.1788144378832070e-04 -1.7859653586023322e-04 4.4179755623790697e-03  0.0000000000000000e+00 0.0000000000000000e+00 0.0000000000000000e+00  1.6557653023570308e-05 -2.4367282501096688e-06 2.5727308925799854e-05  3.3083763866212879e-05 -5.5678351503752814e-06 9.7477720177281636e-05  4.7928346690939628e-05 -1.0389103256428999e-05 2.1188776327214231e-04  6.1059014351389705e-05 -1.6677918120216541e-05 3.6412236705779652e-04  7.2565399328528666e-05 -2.4255322129478756e-05 5.4960381783679705e-04  8.2553482704130716e-05 -3.2947773452444129e-05 7.6406823076036851e-04  9.1118378582239861e-05 -4.2596392970763071e-05 1.0035157840282275e-03  9.8354172507099101e-05 -5.3054864793540446e-05 1.2641929500179095e-03  1.0436041956264908e-04 -6.4188166315400826e-05 1.5426163633066776e-03  1.0923991973817369e-04 -7.5873255569362734e-05 1.8355802189353627e-03  1.1309875144422388e-04 -8.7999434714149615e-05 2.1401649774993267e-03  1.1604649375219834e-04 -1.0046858120960196e-04 2.4537468089740415e-03  1.1819754027240308e-04 -1.1319497550560009e-04 2.7740079658692832e-03  1.1966942144025075e-04 -1.2610520225020893e-04 3.0989552688734357e-03  1.2057957691196868e-04 -1.3913967023693552e-04 3.4269132130554775e-03  1.2105522259292402e-04 -1.5225257875185782e-04 3.7565276612248773e-03  1.2123835839306254e-04 -1.6540938632739302e-04 4.0868303531465030e-03  1.2127390456228445e-04 -1.7858903999887592e-04 4.4172579517374518e-03  0.0000000000000000e+00 0.0000000000000000e+00 0.0000000000000000e+00  5.8524391235475191e-04 4.8409789000090431e-04 3.4805284337667639e-04  1.3611318309939609e-03 1.9391453826309573e-03 2.9547180159701660e-03  1.4534645946251820e-03 4.3330900399877895e-03 7.6564073808806548e-03  5.9754964142280295e-04 6.1247497433801158e-03 1.0487673566293319e-02  3.5786141621098027e-05 6.4649182372049823e-03 1.0057716861175079e-02  1.2324384767399964e-04 6.4190640877246864e-03 1.0053099959145270e-02  2.1275432244052009e-04 6.5735548434565022e-03 1.0761651853373154e-02  2.1318282602231334e-04 6.7399633386323434e-03 1.1245826026174877e-02  2.2392498700794821e-04 6.8982426522946755e-03 1.1779829434114026e-02  2.3486503337577963e-04 7.0723597154019940e-03 1.2342071925117873e-02  2.6638935937010292e-04 7.2659527985115182e-03 1.2947256459093299e-02  2.2469812451543142e-04 7.4549602225428089e-03 1.3654099400035948e-02  2.0859448896038996e-04 7.5388533601406229e-03 1.3972173831614103e-02  4.3146423146355975e-04 7.8023715449050523e-03 1.4635171050238441e-02  4.4128781092071540e-04 8.4764209003029833e-03 1.6395926313197771e-02  1.1163092240751033e-04 8.9328153526747160e-03 1.7252355370599447e-02  -2.1791808498147988e-04 9.1452490877938150e-03 1.7375025106592928e-02  -1.1236196122402300e-03 1.0301578878418977e-02 1.7056978062356211e-02  0.0000000000000000e+00 0.0000000000000000e+00 0.0000000000000000e+00  8.8014173648935537e-04 6.0866174168299077e-04 8.1506703115050627e-04  2.1257701905423661e-03 2.5112089828518902e-03 5.6890296306919491e-03  2.3668251487064754e-03 5.7639282004782171e-03 1.4552040516589702e-02  1.0047943035455492e-03 8.3947395155371494e-03 2.0239072884958416e-02  -8.6581177120400063e-06 9.0779218562481254e-03 1.9704900579537193e-02  1.2622498344186151e-04 9.0725547745548543e-03 1.9507539963100038e-02  2.9353720924999300e-04 9.2736897379129112e-03 2.0598567677931428e-02  2.8280093024055976e-04 9.5093870718386039e-03 2.1316126231299574e-02  2.9803699667266454e-04 9.7369340236497706e-03 2.2095706457430982e-02  3.1045435724889165e-04 9.9865886690465172e-03 2.2930194920383087e-02  3.5685346923760637e-04 1.0263701429868250e-02 2.3821518895633016e-02  3.0450235490210451e-04 1.0537325060807673e-02 2.4885299598074610e-02  2.5488670668593965e-04 1.0663713721448347e-02 2.5259361848435923e-02  5.8996601617852308e-04 1.1006364016829076e-02 2.6215720922135644e-02  6.5994079186485909e-04 1.1935789844922400e-02 2.9266156218731656e-02  1.0458559832542691e-04 1.2656031601315088e-02 3.0797199581414528e-02  -4.6658327873055157e-04 1.3086560145407633e-02 3.0857306485427179e-02  -1.1058324844593103e-03 1.4952522931340726e-02 3.0182504713455145e-02  0.0000000000000000e+00 0.0000000000000000e+00 0.0000000000000000e+00  7.8448676172156249e-04 5.5156183819806228e-04 1.3842401044140606e-03  2.0929340127527284e-03 2.4769324986119155e-03 7.9141645020030082e-03  2.5592296924762852e-03 5.8929499978223393e-03 1.9688726550621694e-02  1.2064850346947902e-03 8.7879676757768484e-03 2.7776093116004059e-02  -5.3919131932977201e-05 9.6432192567045116e-03 2.7749936753297903e-02  7.9217495462694117e-05 9.6860134878740105e-03 2.7514308331840823e-02  3.1576344538249661e-04 9.8987551923566588e-03 2.8834193703035877e-02  2.9007928109690720e-04 1.0148978295796026e-02 2.9761957872206857e-02  3.0584971044535545e-04 1.0393026727233062e-02 3.0745997184166797e-02  3.1710983953563105e-04 1.0658970055165914e-02 3.1814181960806424e-02  3.6217128257525220e-04 1.0954640670011902e-02 3.2941857401355884e-02  3.3610880106741737e-04 1.1255724581078824e-02 3.4271425604018232e-02  2.4023970158909737e-04 1.1393273484412150e-02 3.4785099559077187e-02  5.3829088170806959e-04 1.1729242667822890e-02 3.5991343829856449e-02  7.1267862284049273e-04 1.2710475534123697e-02 3.9899999506463765e-02  1.0133900611063904e-04 1.3537256910644434e-02 4.2105411244286392e-02  -7.0463787936860000e-04 1.4034325848610219e-02 4.2400263327926610e-02  -1.2334157622100608e-03 1.6213107931121965e-02 4.2333361783287012e-02  0.0000000000000000e+00 0.0000000000000000e+00 0.0000000000000000e+00  4.0077754253522410e-04 -3.6670894267260299e-04 8.4482912065829581e-04  1.0228810006888938e-03 -1.4773966619375948e-03 7.4374411502308550e-03  1.1825188464624752e-03 -3.0988196237592964e-03 1.9530801681151455e-02  5.5607862372639778e-04 -4.1259841227520005e-03 2.7629841442217890e-02  1.0028743759431677e-05 -4.2202067994565337e-03 2.7473622680966418e-02  3.5072837583004854e-06 -4.1950356947716436e-03 2.7176638740180475e-02  9.3551399081584293e-05 -4.3206840267443888e-03 2.8495622593593645e-02  9.9525975756151571e-05 -4.4413678010209873e-03 2.9430786486572671e-02  9.8871720852345177e-05 -4.5618964363377309e-03 3.0415308517666138e-02  1.0293957866300445e-04 -4.6889754582960085e-03 3.1458684654053715e-02  1.2555131086693612e-04 -4.8199290529471386e-03 3.2606029507175463e-02  1.0250691494371012e-04 -4.9404775637555730e-03 3.3902280594103280e-02  8.9626361609137787e-05 -5.0474573734269820e-03 3.4291306009073368e-02  2.2529923062776080e-04 -5.3185198717731717e-03 3.5883750704983959e-02  1.3941877998465329e-04 -5.7061581970771682e-03 3.9820256841738018e-02  -2.6962558837001103e-04 -5.8195541493085536e-03 4.1036196587278001e-02  -7.9889940239752540e-04 -5.8656914708191425e-03 4.0437216372694249e-02  -1.4454076009026023e-03 -6.6553460434308305e-03 3.9444268107463952e-02  0.0000000000000000e+00 0.0000000000000000e+00 0.0000000000000000e+00  3.8875047838947375e-04 -3.2702534105013339e-04 3.5917892419525270e-05  1.0144343690932868e-03 -1.2815139500795094e-03 4.2576396198774650e-03  1.2336092586734640e-03 -2.6987740220614348e-03 1.3022143829287489e-02  6.3060447405778098e-04 -3.6394921883306096e-03 1.9185518346003200e-02  1.9190622029701792e-05 -3.7741608773309587e-03 1.8898945624305327e-02  -4.8110750343971782e-06 -3.7678081663600378e-03 1.8521656776125325e-02  1.0354038940547869e-04 -3.8775798696806182e-03 1.9566260320616403e-02  1.0922698305986780e-04 -3.9860817634720823e-03 2.0293969913963424e-02  1.0848977088360219e-04 -4.0951350266307659e-03 2.1040041395703830e-02  1.1248524051523755e-04 -4.2110756837679493e-03 2.1841738589100899e-02  1.3044699602470319e-04 -4.3308486014845462e-03 2.2714335518572860e-02  1.1652311684939905e-04 -4.4399273530985640e-03 2.3759492423032436e-02  9.9157540281682158e-05 -4.5375954701764830e-03 2.4005896500129471e-02  2.2579466146757922e-04 -4.7742632900851789e-03 2.5014479222349801e-02  1.8870513968583913e-04 -5.1125211079933192e-03 2.8081957443344335e-02  -1.7476176667984516e-04 -5.2199645955996925e-03 2.9180591210640552e-02  -5.5607101583568476e-04 -5.2362837641474706e-03 2.8917625831058495e-02  -1.3458624183259860e-03 -6.0781173365814659e-03 2.8878051497033340e-02  0.0000000000000000e+00 0.0000000000000000e+00 0.0000000000000000e+00  2.4650510999023469e-04 -1.8849947729549597e-04 -2.5388485584174037e-04  6.4988568006039483e-04 -7.6480636987790286e-04 1.5001828512333920e-03  8.1752641250747821e-04 -1.6493113595136659e-03 5.7456034658525199e-03  4.4840937543082590e-04 -2.2614258680987713e-03 8.9331253640650733e-03  3.2113295004993438e-05 -2.3690935725098122e-03 8.7665483957762181e-03  6.2689355794148164e-06 -2.3736747675673501e-03 8.5623531318750282e-03  8.5601642886727275e-05 -2.4454570521606610e-03 9.2042612405361102e-03  9.1801462138021235e-05 -2.5169650855661734e-03 9.6850883822966818e-03  9.1978874891024813e-05 -2.5893821375761101e-03 1.0168195212497488e-02  9.5669918563441925e-05 -2.6667466488614947e-03 1.0690903868082441e-02  1.0525795783890384e-04 -2.7477494395075869e-03 1.1247895422018213e-02  1.0022345921646700e-04 -2.8219000635908730e-03 1.1933292278301899e-02  8.9092460317409468e-05 -2.8836839460335316e-03 1.2163516866518212e-02  1.6478889597999161e-04 -3.0311277663665143e-03 1.2681030763197614e-02  1.6206990518257333e-04 -3.2514586109675474e-03 1.4386458337835598e-02  -4.9547085045639292e-05 -3.3347572975266442e-03 1.5163166393091744e-02  -2.1155005715055793e-04 -3.3174666977951192e-03 1.5234605384564675e-02  -1.1489787079133377e-03 -4.0495147674892464e-03 1.5746501149337937e-02  0.0000000000000000e+00 0.0000000000000000e+00 0.0000000000000000e+00  8.2647050845751363e-06 -1.3837322856395295e-06 2.5269109234198636e-05  1.6243836081150378e-05 -4.5726055910162128e-06 9.7199593333159503e-05  2.3344091384145096e-05 -9.4361548843744104e-06 2.1172707712990567e-04  2.9624257148044645e-05 -1.5773502218822599e-05 3.6407562762845767e-04  3.5128167442753327e-05 -2.3397227259830461e-05 5.4966262107808070e-04  3.9905844190930375e-05 -3.2134896928299462e-05 7.6422319364940919e-04  4.4002590244437449e-05 -4.1827662232763003e-05 1.0037582906484181e-03  4.7463363141174984e-05 -5.2328538102590594e-05 1.2645148298026107e-03  5.0335622958112075e-05 -6.3502105570872983e-05 1.5430095444909707e-03  5.2668476944651008e-05 -7.5224914224763083e-05 1.8360368787983708e-03  5.4512622395809569e-05 -8.7385832686422517e-05 2.1406775333636910e-03  5.5920496002989420e-05 -9.9886223212000138e-05 2.4543079292005973e-03  5.6946933768468458e-05 -1.1263989225536718e-04 2.7746105074694899e-03  5.7648159529675658e-05 -1.2557326667867410e-04 3.0995923502028159e-03  5.8080615325860658e-05 -1.3862607001480774e-04 3.4275784333786985e-03  5.8305981493979202e-05 -1.5175106769541795e-04 3.7572148412866190e-03  5.8392553947048841e-05 -1.6491311901192438e-04 4.0875334994004489e-03  5.8408674605535063e-05 -1.7809140747119875e-04 4.4179698776537135e-03  0.0000000000000000e+00 0.0000000000000000e+00 0.0000000000000000e+00  8.3793720496375078e-06 -2.0750212557685521e-06 2.4854245594976166e-05  1.6919752893982166e-05 -5.1405105611169869e-06 9.6742359013753801e-05  2.4464555263884759e-05 -9.9373333121175523e-06 2.1122974721436374e-04  3.1138561231879573e-05 -1.6213284045030351e-05 3.6354021512468264e-04  3.6987466223091685e-05 -2.3780035230168483e-05 5.4909332843676364e-04  4.2065232097728940e-05 -3.2464547823697118e-05 7.6362484764187571e-04  4.6420636185726962e-05 -4.2107548461005658e-05 1.0031353179253621e-03  5.0101456797207191e-05 -5.2562197564634854e-05 1.2638712235037524e-03  5.3158089442331093e-05 -6.3693239292070698e-05 1.5423489669603872e-03  5.5642692274455825e-05 -7.5377338724944259e-05 1.8353626026603484e-03  5.7609072040036144e-05 -8.7503487542490394e-05 2.1399924445400439e-03  5.9112768708366952e-05 -9.9973204356653480e-05 2.4536145119157865e-03  6.0211689412833106e-05 -1.1270047441662582e-04 2.7739108470901919e-03  6.0965467389348426e-05 -1.2561170351181863e-04 3.0988880863344281e-03  6.1433867595241614e-05 -1.3864675293583889e-04 3.4268707057763452e-03  6.1681207605554717e-05 -1.5175904240838755e-04 3.7565042326728705e-03  6.1778960401976822e-05 -1.6491360403032306e-04 4.0868198449594446e-03  6.1799339011873799e-05 -1.7808851290197460e-04 4.4172532350594280e-03  0.0000000000000000e+00 0.0000000000000000e+00 0.0000000000000000e+00  2.7813123041214139e-04 1.5773427751441556e-04 2.3940137193757780e-04  6.8262543506497132e-04 6.4872674514618984e-04 2.5944578905296011e-03  7.9915505735581093e-04 1.4806682401650496e-03 6.9104007275276541e-03  3.8499597737065707e-04 2.1218476710740228e-03 9.4030869490078321e-03  3.0870315628811621e-05 2.2612150574299701e-03 8.8063280809476466e-03  4.8234176837769464e-05 2.2494640835716648e-03 8.7563244233853279e-03  1.1227612616881275e-04 2.2953871308049540e-03 9.4458134642958474e-03  1.1778250947019798e-04 2.3460587568885798e-03 9.8996350370455840e-03  1.2220586528284888e-04 2.3948367756794937e-03 1.0398601961594414e-02  1.2721034873758034e-04 2.4499279140657877e-03 1.0924398907082548e-02  1.4577541672451216e-04 2.5132243613283666e-03 1.1488470583001490e-02  1.3270077604119325e-04 2.5724968355027291e-03 1.2159834798555716e-02  1.0690812902881668e-04 2.5903440370270703e-03 1.2450536046681089e-02  1.9688197082661429e-04 2.6741544946458917e-03 1.3054263158779085e-02  2.1348940275225410e-04 2.9082629245621009e-03 1.4714637615358404e-02  2.3196136049298729e-05 3.0645495141902973e-03 1.5479496705914107e-02  -1.7049588079064945e-04 3.1750921640439187e-03 1.5517577778132778e-02  -8.5815044637674591e-04 3.7087290375092089e-03 1.4745098254641034e-02  0.0000000000000000e+00 0.0000000000000000e+00 0.0000000000000000e+00  3.9613140634393201e-04 2.3610665635651778e-04 7.3264160192074482e-04  1.0113634023477228e-03 1.0558137933217341e-03 5.4875799427162369e-03  1.2172247544105549e-03 2.5100993047425433e-03 1.4229060160083693e-02  5.8909445548451509e-04 3.7178520551082819e-03 1.9821556777549178e-02  1.1674697825770771e-05 4.0568518426640490e-03 1.9172888073935430e-02  3.8198537510721631e-05 4.0654832598997449e-03 1.8894955890404828e-02  1.4810984170894300e-04 4.1490271293368377e-03 1.9976864854568944e-02  1.5458210405177420e-04 4.2478916069133158e-03 2.0688123408862738e-02  1.5998690148256835e-04 4.3447977184884424e-03 2.1449862626717435e-02  1.6462165116349156e-04 4.4522049868784604e-03 2.2267195192108982e-02  1.9172207601166432e-04 4.5747882531594619e-03 2.3137389627737488e-02  1.7853360353639567e-04 4.6947426430515521e-03 2.4189224752804748e-02  1.2883322342029576e-04 4.7396783406229966e-03 2.4551049524938161e-02  2.5140800070545891e-04 4.8837319345840990e-03 2.5465563640476328e-02  2.905336040