<?xml version="1.0"?>
<VTKFile type="UnstructuredGrid"  version="0.1"  >
<UnstructuredGrid>
<Piece  NumberOfPoints="760" NumberOfCells="3024">
<Points>
<DataArray  type="Float64"  NumberOfComponents="3"  format="ascii">0 0 0  0.05555555555555555 0 0  0.1111111111111111 0 0  0.1666666666666667 0 0  0.2222222222222222 0 0  0.2777777777777778 0 0  0.3333333333333333 0 0  0.3888888888888889 0 0  0.4444444444444444 0 0  0.5 0 0  0.5555555555555556 0 0  0.6111111111111112 0 0  0.6666666666666666 0 0  0.7222222222222222 0 0  0.7777777777777778 0 0  0.8333333333333334 0 0  0.8888888888888888 0 0  0.9444444444444444 0 0  1 0 0  0 0.01428571428571429 0  0.05555555555555555 0.01428571428571429 0  0.1111111111111111 0.01428571428571429 0  0.1666666666666667 0.01428571428571429 0  0.2222222222222222 0.01428571428571429 0  0.2777777777777778 0.01428571428571429 0  0.3333333333333333 0.01428571428571429 0  0.3888888888888889 0.01428571428571429 0  0.4444444444444444 0.01428571428571429 0  0.5 0.01428571428571429 0  0.5555555555555556 0.01428571428571429 0  0.6111111111111112 0.01428571428571429 0  0.6666666666666666 0.01428571428571429 0  0.7222222222222222 0.01428571428571429 0  0.7777777777777778 0.01428571428571429 0  0.8333333333333334 0.01428571428571429 0  0.8888888888888888 0.01428571428571429 0  0.9444444444444444 0.01428571428571429 0  1 0.01428571428571429 0  0 0.02857142857142857 0  0.05555555555555555 0.02857142857142857 0  0.1111111111111111 0.02857142857142857 0  0.1666666666666667 0.02857142857142857 0  0.2222222222222222 0.02857142857142857 0  0.2777777777777778 0.02857142857142857 0  0.3333333333333333 0.02857142857142857 0  0.3888888888888889 0.02857142857142857 0  0.4444444444444444 0.02857142857142857 0  0.5 0.02857142857142857 0  0.5555555555555556 0.02857142857142857 0  0.6111111111111112 0.02857142857142857 0  0.6666666666666666 0.02857142857142857 0  0.7222222222222222 0.02857142857142857 0  0.7777777777777778 0.02857142857142857 0  0.8333333333333334 0.02857142857142857 0  0.8888888888888888 0.02857142857142857 0  0.9444444444444444 0.02857142857142857 0  1 0.02857142857142857 0  0 0.04285714285714286 0  0.05555555555555555 0.04285714285714286 0  0.1111111111111111 0.04285714285714286 0  0.1666666666666667 0.04285714285714286 0  0.2222222222222222 0.04285714285714286 0  0.2777777777777778 0.04285714285714286 0  0.3333333333333333 0.04285714285714286 0  0.3888888888888889 0.04285714285714286 0  0.4444444444444444 0.04285714285714286 0  0.5 0.04285714285714286 0  0.5555555555555556 0.04285714285714286 0  0.6111111111111112 0.04285714285714286 0  0.6666666666666666 0.04285714285714286 0  0.7222222222222222 0.04285714285714286 0  0.7777777777777778 0.04285714285714286 0  0.8333333333333334 0.04285714285714286 0  0.8888888888888888 0.04285714285714286 0  0.9444444444444444 0.04285714285714286 0  1 0.04285714285714286 0  0 0.05714285714285715 0  0.05555555555555555 0.05714285714285715 0  0.1111111111111111 0.05714285714285715 0  0.1666666666666667 0.05714285714285715 0  0.2222222222222222 0.05714285714285715 0  0.2777777777777778 0.05714285714285715 0  0.3333333333333333 0.05714285714285715 0  0.3888888888888889 0.05714285714285715 0  0.4444444444444444 0.05714285714285715 0  0.5 0.05714285714285715 0  0.5555555555555556 0.05714285714285715 0  0.6111111111111112 0.05714285714285715 0  0.6666666666666666 0.05714285714285715 0  0.7222222222222222 0.05714285714285715 0  0.7777777777777778 0.05714285714285715 0  0.8333333333333334 0.05714285714285715 0  0.8888888888888888 0.05714285714285715 0  0.9444444444444444 0.05714285714285715 0  1 0.05714285714285715 0  0 0.07142857142857142 0  0.05555555555555555 0.07142857142857142 0  0.1111111111111111 0.07142857142857142 0  0.1666666666666667 0.07142857142857142 0  0.2222222222222222 0.07142857142857142 0  0.2777777777777778 0.07142857142857142 0  0.3333333333333333 0.07142857142857142 0  0.3888888888888889 0.07142857142857142 0  0.4444444444444444 0.07142857142857142 0  0.5 0.07142857142857142 0  0.5555555555555556 0.07142857142857142 0  0.6111111111111112 0.07142857142857142 0  0.6666666666666666 0.07142857142857142 0  0.7222222222222222 0.07142857142857142 0  0.7777777777777778 0.07142857142857142 0  0.8333333333333334 0.07142857142857142 0  0.8888888888888888 0.07142857142857142 0  0.9444444444444444 0.07142857142857142 0  1 0.07142857142857142 0  0 0.08571428571428573 0  0.05555555555555555 0.08571428571428573 0  0.1111111111111111 0.08571428571428573 0  0.1666666666666667 0.08571428571428573 0  0.2222222222222222 0.08571428571428573 0  0.2777777777777778 0.08571428571428573 0  0.3333333333333333 0.08571428571428573 0  0.3888888888888889 0.08571428571428573 0  0.4444444444444444 0.08571428571428573 0  0.5 0.08571428571428573 0  0.5555555555555556 0.08571428571428573 0  0.6111111111111112 0.08571428571428573 0  0.6666666666666666 0.08571428571428573 0  0.7222222222222222 0.08571428571428573 0  0.7777777777777778 0.08571428571428573 0  0.8333333333333334 0.08571428571428573 0  0.8888888888888888 0.08571428571428573 0  0.9444444444444444 0.08571428571428573 0  1 0.08571428571428573 0  0 0.1 0  0.05555555555555555 0.1 0  0.1111111111111111 0.1 0  0.1666666666666667 0.1 0  0.2222222222222222 0.1 0  0.2777777777777778 0.1 0  0.3333333333333333 0.1 0  0.3888888888888889 0.1 0  0.4444444444444444 0.1 0  0.5 0.1 0  0.5555555555555556 0.1 0  0.6111111111111112 0.1 0  0.6666666666666666 0.1 0  0.7222222222222222 0.1 0  0.7777777777777778 0.1 0  0.8333333333333334 0.1 0  0.8888888888888888 0.1 0  0.9444444444444444 0.1 0  1 0.1 0  0 0 0.01  0.05555555555555555 0 0.01  0.1111111111111111 0 0.01  0.1666666666666667 0 0.01  0.2222222222222222 0 0.01  0.2777777777777778 0 0.01  0.3333333333333333 0 0.01  0.3888888888888889 0 0.01  0.4444444444444444 0 0.01  0.5 0 0.01  0.5555555555555556 0 0.01  0.6111111111111112 0 0.01  0.6666666666666666 0 0.01  0.7222222222222222 0 0.01  0.7777777777777778 0 0.01  0.8333333333333334 0 0.01  0.8888888888888888 0 0.01  0.9444444444444444 0 0.01  1 0 0.01  0 0.01428571428571429 0.01  0.05555555555555555 0.01428571428571429 0.01  0.1111111111111111 0.01428571428571429 0.01  0.1666666666666667 0.01428571428571429 0.01  0.2222222222222222 0.01428571428571429 0.01  0.2777777777777778 0.01428571428571429 0.01  0.3333333333333333 0.01428571428571429 0.01  0.3888888888888889 0.01428571428571429 0.01  0.4444444444444444 0.01428571428571429 0.01  0.5 0.01428571428571429 0.01  0.5555555555555556 0.01428571428571429 0.01  0.6111111111111112 0.01428571428571429 0.01  0.6666666666666666 0.01428571428571429 0.01  0.7222222222222222 0.01428571428571429 0.01  0.7777777777777778 0.01428571428571429 0.01  0.8333333333333334 0.01428571428571429 0.01  0.8888888888888888 0.01428571428571429 0.01  0.9444444444444444 0.01428571428571429 0.01  1 0.01428571428571429 0.01  0 0.02857142857142857 0.01  0.05555555555555555 0.02857142857142857 0.01  0.1111111111111111 0.02857142857142857 0.01  0.1666666666666667 0.02857142857142857 0.01  0.2222222222222222 0.02857142857142857 0.01  0.2777777777777778 0.02857142857142857 0.01  0.3333333333333333 0.02857142857142857 0.01  0.3888888888888889 0.02857142857142857 0.01  0.4444444444444444 0.02857142857142857 0.01  0.5 0.02857142857142857 0.01  0.5555555555555556 0.02857142857142857 0.01  0.6111111111111112 0.02857142857142857 0.01  0.6666666666666666 0.02857142857142857 0.01  0.7222222222222222 0.02857142857142857 0.01  0.7777777777777778 0.02857142857142857 0.01  0.8333333333333334 0.02857142857142857 0.01  0.8888888888888888 0.02857142857142857 0.01  0.9444444444444444 0.02857142857142857 0.01  1 0.02857142857142857 0.01  0 0.04285714285714286 0.01  0.05555555555555555 0.04285714285714286 0.01  0.1111111111111111 0.04285714285714286 0.01  0.1666666666666667 0.04285714285714286 0.01  0.2222222222222222 0.04285714285714286 0.01  0.2777777777777778 0.04285714285714286 0.01  0.3333333333333333 0.04285714285714286 0.01  0.3888888888888889 0.04285714285714286 0.01  0.4444444444444444 0.04285714285714286 0.01  0.5 0.04285714285714286 0.01  0.5555555555555556 0.04285714285714286 0.01  0.6111111111111112 0.04285714285714286 0.01  0.6666666666666666 0.04285714285714286 0.01  0.7222222222222222 0.04285714285714286 0.01  0.7777777777777778 0.04285714285714286 0.01  0.8333333333333334 0.04285714285714286 0.01  0.8888888888888888 0.04285714285714286 0.01  0.9444444444444444 0.04285714285714286 0.01  1 0.04285714285714286 0.01  0 0.05714285714285715 0.01  0.05555555555555555 0.05714285714285715 0.01  0.1111111111111111 0.05714285714285715 0.01  0.1666666666666667 0.05714285714285715 0.01  0.2222222222222222 0.05714285714285715 0.01  0.2777777777777778 0.05714285714285715 0.01  0.3333333333333333 0.05714285714285715 0.01  0.3888888888888889 0.05714285714285715 0.01  0.4444444444444444 0.05714285714285715 0.01  0.5 0.05714285714285715 0.01  0.5555555555555556 0.05714285714285715 0.01  0.6111111111111112 0.05714285714285715 0.01  0.6666666666666666 0.05714285714285715 0.01  0.7222222222222222 0.05714285714285715 0.01  0.7777777777777778 0.05714285714285715 0.01  0.8333333333333334 0.05714285714285715 0.01  0.8888888888888888 0.05714285714285715 0.01  0.9444444444444444 0.05714285714285715 0.01  1 0.05714285714285715 0.01  0 0.07142857142857142 0.01  0.05555555555555555 0.07142857142857142 0.01  0.1111111111111111 0.07142857142857142 0.01  0.1666666666666667 0.07142857142857142 0.01  0.2222222222222222 0.07142857142857142 0.01  0.2777777777777778 0.07142857142857142 0.01  0.3333333333333333 0.07142857142857142 0.01  0.3888888888888889 0.07142857142857142 0.01  0.4444444444444444 0.07142857142857142 0.01  0.5 0.07142857142857142 0.01  0.5555555555555556 0.07142857142857142 0.01  0.6111111111111112 0.07142857142857142 0.01  0.6666666666666666 0.07142857142857142 0.01  0.7222222222222222 0.07142857142857142 0.01  0.7777777777777778 0.07142857142857142 0.01  0.8333333333333334 0.07142857142857142 0.01  0.8888888888888888 0.07142857142857142 0.01  
[...]
<PointData  Vectors="f_36"> 
<DataArray  type="Float64"  Name="f_36"  NumberOfComponents="3" format="ascii">0.0000000000000000e+00 0.0000000000000000e+00 0.0000000000000000e+00  8.7094058317462367e-04 -1.5985142170930069e-03 3.2292929487847148e-03  1.4656311901035104e-03 -3.6705594295211924e-03 8.4988175859700976e-03  1.9514418124951932e-03 -6.3757341850110031e-03 1.6050893835326006e-02  2.0811967892876309e-03 -9.3509710988441130e-03 2.5173117916290285e-02  1.4938802812223741e-03 -1.1710998724182043e-02 3.3461516557769085e-02  3.4478595788881207e-04 -1.2527345334472627e-02 3.7162310636144481e-02  -3.9098704851104704e-04 -1.1954485273971555e-02 3.5419139433785579e-02  -1.7126581212355797e-04 -1.1305599045895367e-02 3.2898214766042495e-02  2.5221292176303794e-04 -1.1363404018272313e-02 3.3386389271997323e-02  2.2087656521505882e-04 -1.1662955236390563e-02 3.4991373860659897e-02  1.4947196421992518e-04 -1.1823649617287848e-02 3.5549424127332571e-02  3.5946022411793675e-04 -1.2165880161157584e-02 3.6577678661816708e-02  4.6325968837163356e-04 -1.2765180492258183e-02 3.8913628729186106e-02  3.1603420058402197e-04 -1.3258309959495033e-02 4.0914670747856922e-02  1.6449979736917817e-04 -1.3537337569628185e-02 4.2090920720157438e-02  -3.2259944552663097e-06 -1.3712878822604975e-02 4.3079017084740177e-02  -5.4717237962177028e-04 -1.3870298855207493e-02 4.3905073636729616e-02  -1.3527033009061438e-03 -1.4656476853514179e-02 4.3534005209187210e-02  0.0000000000000000e+00 0.0000000000000000e+00 0.0000000000000000e+00  8.1761013513437350e-04 -1.3192153312385564e-03 1.8380867508402455e-03  1.3697788927727198e-03 -3.1516111735342763e-03 5.2613346043442026e-03  1.8397298333628464e-03 -5.6004937443243892e-03 1.0374111451252594e-02  2.0008381587767092e-03 -8.3630419674858344e-03 1.6778592478798808e-02  1.5086308986895782e-03 -1.0646781898810222e-02 2.2869206363203356e-02  4.3436495679247534e-04 -1.1545983713739199e-02 2.5801276505195619e-02  -3.5538560931366913e-04 -1.1091289996361657e-02 2.4616413921748018e-02  -2.2119016015775890e-04 -1.0461766869796933e-02 2.2711171652171819e-02  2.2768306308494266e-04 -1.0472229679744418e-02 2.3133571383427434e-02  2.5145265466531170e-04 -1.0752640833448179e-02 2.4481527609916974e-02  1.5210582836919771e-04 -1.0906190766838622e-02 2.4937225630653561e-02  3.3004764659680434e-04 -1.1204062773079202e-02 2.5663209112721505e-02  4.6478879798224912e-04 -1.1755043180535390e-02 2.7445337548159338e-02  3.3854383807281889e-04 -1.2232384903416837e-02 2.9016454652484466e-02  1.8543066294024485e-04 -1.2510642810957141e-02 2.9956254562745224e-02  7.0141209532966598e-05 -1.2687841276815236e-02 3.0800808196540158e-02  -2.6644184140334188e-04 -1.2871352924144644e-02 3.1663214551942202e-02  -1.3838711291963483e-03 -1.4002428963620450e-02 3.2110257277595346e-02  0.0000000000000000e+00 0.0000000000000000e+00 0.0000000000000000e+00  4.9852696585446184e-04 -7.5370758016692443e-04 7.1762578941583820e-04  8.4780997252369822e-04 -1.9000792317312642e-03 2.2761119888259442e-03  1.1483782132360749e-03 -3.5027576673839103e-03 4.6970284521715214e-03  1.2668457160712741e-03 -5.3823943492867102e-03 7.8359377256757533e-03  9.9116878337584895e-04 -7.0195139440898070e-03 1.0968874079144198e-02  3.4089964732898493e-04 -7.7400551323581748e-03 1.2643393577308010e-02  -1.7357201490856354e-04 -7.4639436221826273e-03 1.2214834133838354e-02  -1.1702392659767868e-04 -6.9958648625914506e-03 1.1347808452307958e-02  1.7746991804482639e-04 -6.9846463332570007e-03 1.1702243872816107e-02  2.1575934187157095e-04 -7.1978058950509724e-03 1.2589105139241236e-02  1.4545684518135269e-04 -7.3066765763420858e-03 1.2980436369987268e-02  2.4616137851890400e-04 -7.4947971217225800e-03 1.3465698533133258e-02  3.4299279151875746e-04 -7.8786890731720512e-03 1.4527171417856191e-02  2.7263086833112467e-04 -8.2284897207914025e-03 1.5506908684706078e-02  1.7625945062503458e-04 -8.4379007847722905e-03 1.6156958924289391e-02  1.2160648352237180e-04 -8.5857509715522012e-03 1.6774829629317520e-02  4.3039949003773364e-05 -8.7109665134283195e-03 1.7456962075314175e-02  -1.5132284330964167e-03 -1.0238145549755532e-02 1.8334206751608118e-02  0.0000000000000000e+00 0.0000000000000000e+00 0.0000000000000000e+00  1.9306623278787317e-05 -1.6562128137570034e-06 2.8608581778632622e-05  3.6820134296280832e-05 -5.2785308151202059e-06 1.0769028860363096e-04  5.2542403340776440e-05 -1.0839008678642966e-05 2.3367277944491674e-04  6.6445035205381624e-05 -1.8099055150283006e-05 4.0136633893983578e-04  7.8590936499538133e-05 -2.6862608285278577e-05 6.0569462269025065e-04  8.9081304242770947e-05 -3.6938865572164322e-05 8.4181620374946099e-04  9.8041411415173812e-05 -4.8147561922081916e-05 1.1052275931547131e-03  1.0559685528000898e-04 -6.0321763815499159e-05 1.3918053761935198e-03  1.1185897629829480e-04 -7.3307802471267585e-05 1.6977625476553976e-03  1.1693395256488147e-04 -8.6963365178661955e-05 2.0195991772669832e-03  1.2093517604655107e-04 -1.0115702019880231e-04 2.3541183202123398e-03  1.2398061325093779e-04 -1.1576987853605900e-04 2.6984578768353140e-03  1.2618874176596696e-04 -1.3069670670121195e-04 3.0500875148267142e-03  1.2768384249997841e-04 -1.4584590688815403e-04 3.4068106021096283e-03  1.2859929916067572e-04 -1.6114058719445372e-04 3.7667951583090294e-03  1.2907451067806710e-04 -1.7652046734212436e-04 4.1285979851377243e-03  1.2925335256817061e-04 -1.9194283366680455e-04 4.4911746119496807e-03  1.2928585563477666e-04 -2.0738390132616987e-04 4.8538973203951230e-03  0.0000000000000000e+00 0.0000000000000000e+00 0.0000000000000000e+00  1.8226948008409663e-05 -2.7022395713289150e-06 2.8308847446676212e-05  3.6426221966458079e-05 -6.2274105713788010e-06 1.0725765030340937e-04  5.2792337348233392e-05 -1.1684491796722170e-05 2.3318624385470948e-04  6.7279004457406643e-05 -1.8838853182087945e-05 4.0083150187228623e-04  7.9950406147231100e-05 -2.7501817866080111e-05 6.0511567627975521e-04  9.0906881914513491e-05 -3.7485202768575420e-05 8.4119716650954488e-04  1.0027559627078032e-04 -4.8609416050042367e-05 1.1045733672679927e-03  1.0818712319888358e-04 -6.0706193499142678e-05 1.3911214162569373e-03  1.1475748103436749e-04 -7.3620658517748459e-05 1.6970537801657040e-03  1.2009507415527035e-04 -8.7210896863844570e-05 2.0188694465065205e-03  1.2431533706697893e-04 -1.0134620467984798e-04 2.3533709182447849e-03  1.2753976291724725e-04 -1.1590763570573941e-04 2.6976959949818885e-03  1.2989019851071754e-04 -1.3079002655582754e-04 3.0493139985398776e-03  1.3149349943018866e-04 -1.4590246217914345e-04 3.4060278120262460e-03  1.3248626990492121e-04 -1.6116856571050611e-04 3.7660050256030993e-03  1.3301190480160922e-04 -1.7652824107054982e-04 4.1278017607102252e-03  1.3321822587350788e-04 -1.9193896937144399e-04 4.4903723479489174e-03  1.3325918811017532e-04 -2.0737585017166794e-04 4.8530875208895024e-03  0.0000000000000000e+00 0.0000000000000000e+00 0.0000000000000000e+00  5.7512704178824814e-04 8.6847378940617566e-04 1.1927384794483034e-03  9.0537410289455965e-04 2.1061297351913717e-03 3.1609537353118372e-03  1.1755258144670003e-03 3.8173435346871933e-03 5.9812194071089363e-03  1.2365843326719945e-03 5.8074916510364137e-03 9.3769510070269256e-03  8.9145335971155173e-04 7.5662452639160063e-03 1.2452632199467718e-02  2.3120610731276308e-04 8.4136605298341539e-03 1.3782730697047225e-02  -1.8924733538921195e-04 8.1829773527190459e-03 1.3071029677906871e-02  -3.4938891835305309e-05 7.6421438605595096e-03 1.2244090099303563e-02  2.4717843690533529e-04 7.5669745781123589e-03 1.2824245290154190e-02  2.2339374624868408e-04 7.7802012346498235e-03 1.3770739500074484e-02  1.5338924429398815e-04 7.8534460386107639e-03 1.4069546728998234e-02  2.7667825278214611e-04 7.9461136190642160e-03 1.4540040166303074e-02  3.6598399853256090e-04 8.2650578069694298e-03 1.5616966305265413e-02  3.0937306817850586e-04 8.6242185115299776e-03 1.6600456853113749e-02  2.5783904690523582e-04 8.9014452537975464e-03 1.7338076390464727e-02  2.0621505747601374e-04 9.1914588979642563e-03 1.8178374612929222e-02  -2.3376289417636966e-05 9.6301962054373049e-03 1.8947325961361013e-02  -1.0038158619344573e-03 1.1040032120667745e-02 1.8891241923963659e-02  0.0000000000000000e+00 0.0000000000000000e+00 0.0000000000000000e+00  8.8958837705645113e-04 1.1335118216773549e-03 2.4074862166326249e-03  1.4165220020765851e-03 2.8391336538588913e-03 6.2477020664369687e-03  1.8457669544182265e-03 5.1940658025151701e-03 1.1696719118491237e-02  1.9553670045759312e-03 7.9620144670588446e-03 1.8212405471455220e-02  1.4254163769516939e-03 1.0471573058262563e-02 2.4094067112114377e-02  3.6131629640079619e-04 1.1790959580730556e-02 2.6669246229814540e-02  -3.6873105469250017e-04 1.1608394086226985e-02 2.5280399242388375e-02  -1.5693202863373474e-04 1.0879717397700623e-02 2.3414350971838079e-02  3.2497896271255195e-04 1.0709373635053403e-02 2.4067672814313771e-02  3.0451440716570928e-04 1.0972373554092040e-02 2.5531909849689980e-02  1.6150279155119650e-04 1.1086571253604648e-02 2.5850574352926203e-02  3.4911522425032447e-04 1.1204634544956057e-02 2.6409706491664357e-02  5.1307726040591571e-04 1.1620692533140247e-02 2.8097664433557847e-02  4.2051707929465588e-04 1.2119228694420541e-02 2.9679433905365364e-02  3.1940102076833050e-04 1.2519726738100864e-02 3.0797095721815968e-02  2.1629736781298065e-04 1.2945019173606721e-02 3.2082611242490039e-02  -1.5023663306542676e-04 1.3636498911554700e-02 3.3265513797220682e-02  -8.5242871686398724e-04 1.5816458206574825e-02 3.3133864453666326e-02  0.0000000000000000e+00 0.0000000000000000e+00 0.0000000000000000e+00  8.6129505537226308e-04 1.0973048308404814e-03 3.4222153306863890e-03  1.4045218852356673e-03 2.8802040610273853e-03 8.7732519195097662e-03  1.8653622229496004e-03 5.3477467981880005e-03 1.6307349053216763e-02  2.0343152494521136e-03 8.2852451932502354e-03 2.5269615579845042e-02  1.5663747257804506e-03 1.1010200317059902e-02 3.3378858527761443e-02  4.7717870049861618e-04 1.2527465571726548e-02 3.7135915691542107e-02  -3.8418191309140347e-04 1.2434860596211621e-02 3.5565946400206515e-02  -2.3804798270132146e-04 1.1678208198680052e-02 3.3021604358671124e-02  3.2643247389084712e-04 1.1458664927153620e-02 3.3553785317069755e-02  3.5501946030181000e-04 1.1716484762294902e-02 3.5309596887839780e-02  1.5173182111803574e-04 1.1838091797792459e-02 3.5729928304639731e-02  3.2275213282883315e-04 1.1952103243554833e-02 3.6377701524735212e-02  5.3541295977644178e-04 1.2377883189715687e-02 3.8464339869709763e-02  4.4274232146603108e-04 1.2906920001497974e-02 4.0517745281885578e-02  3.0396720258124945e-04 1.3342310733195178e-02 4.1987858580258004e-02  1.6970219390599454e-04 1.3818449739103313e-02 4.3647001705147383e-02  -3.5595496415985104e-04 1.4555627987908909e-02 4.5288974756537731e-02  -9.4534576885880464e-04 1.7023407627608574e-02 4.5995360739506087e-02  0.0000000000000000e+00 0.0000000000000000e+00 0.0000000000000000e+00  3.4617737134490971e-04 -6.0521913604562230e-04 3.0829117973767911e-03  6.2089741745120514e-04 -1.4822550580775589e-03 8.2781359137228134e-03  8.4052307232739898e-04 -2.6420171497430773e-03 1.5737521040928262e-02  9.2307320549919443e-04 -3.9546636631403080e-03 2.4793697630848294e-02  7.1512334870650076e-04 -5.0434487040313400e-03 3.3085476427221143e-02  2.3993613953031539e-04 -5.4646832646261861e-03 3.6846110132909754e-02  -1.2026564758598079e-04 -5.2264548558878651e-03 3.5133850416798465e-02  -8.1583230814422488e-05 -4.9119087128385351e-03 3.2579687404752450e-02  8.7664072613699280e-05 -4.9299373885311323e-03 3.3038432552444569e-02  7.4014878343529135e-05 -5.0837188056447827e-03 3.4651630688144676e-02  2.4798984799790264e-05 -5.1579031816742643e-03 3.5205420748008580e-02  1.0593369824857756e-04 -5.2946505470757863e-03 3.6202712173229699e-02  1.6040948634073247e-04 -5.5628944913849844e-03 3.8523230919924822e-02  9.3375059305637474e-05 -5.7983387687986004e-03 4.0527438187395758e-02  3.6910084877229261e-07 -5.9330106912588061e-03 4.1702266539577898e-02  -1.4380192412099101e-04 -6.0304260461114100e-03 4.2688771047187081e-02  -5.8465124751177989e-04 -6.2468865739850350e-03 4.3511894638464117e-02  -1.2537450722230497e-03 -7.1038234275250184e-03 4.3140554199640517e-02  0.0000000000000000e+00 0.0000000000000000e+00 0.0000000000000000e+00  3.7163964258201028e-04 -5.3263527664392462e-04 1.7337609497770901e-03  6.4456444814786585e-04 -1.2953878309754940e-03 5.0921410657281292e-03  8.7036563159159435e-04 -2.3205581537795428e-03 1.0124573909715858e-02  9.6146175180879072e-04 -3.4887897486790462e-03 1.6464691374844506e-02  7.5899860202460474e-04 -4.4733916937065273e-03 2.2541625900052733e-02  2.7085613329352529e-04 -4.8830672063068089e-03 2.5505927117183476e-02  -1.2749785652758976e-04 -4.7061207636620462e-03 2.4333747296791976e-02  -1.0860798067878363e-04 -4.4336394326903814e-03 2.2394780246629262e-02  8.7050681648331464e-05 -4.4354220308842262e-03 2.2795509402808781e-02  9.8518234903905092e-05 -4.5670280367740785e-03 2.4157610922930412e-02  3.9759759771127716e-05 -4.6403926337260102e-03 2.4612900688320349e-02  1.1378008048222445e-04 -4.7633783305898163e-03 2.5311864023858929e-02  1.8286483074112327e-04 -4.9984765372733473e-03 2.7081347068980740e-02  1.2220466012452001e-04 -5.2115036069963292e-03 2.8655758711598259e-02  2.9081886891928362e-05 -5.3373400861226007e-03 2.9592416017904778e-02  -7.0974809977569420e-05 -5.4177817690580134e-03 3.0432913881740038e-02  -3.4266622837562043e-04 -5.5752396740405864e-03 3.1303098040215659e-02  -1.1728951067192994e-03 -6.4849498451059343e-03 3.1846562686334262e-02  0.0000000000000000e+00 0.0000000000000000e+00 0.0000000000000000e+00  2.4703825683258291e-04 -3.1844713469646993e-04 5.9270330435097745e-04  4.2618045865371241e-04 -7.8068898547515567e-04 2.0233867515670979e-03  5.7703720302719008e-04 -1.4171642036852102e-03 4.2824270975850990e-03  6.4201622563821311e-04 -2.1532165032195510e-03 7.2580680421578444e-03  5.1777897325526109e-04 -2.7883903973471846e-03 1.0277394789723809e-02  2.0368791283015045e-04 -3.0725905860254392e-03 1.1917495549824839e-02  -6.4795061608336832e-05 -2.9822195404471102e-03 1.1495426664837884e-02  -6.1650203876988596e-05 -2.8156323202213102e-03 1.0624372852186849e-02  7.4579064125905980e-05 -2.8144165559881818e-03 1.0971381824108773e-02  9.4938779753670505e-05 -2.9006067720009883e-03 1.1863597841129680e-02  5.4580239298388318e-05 -2.9539862992253693e-03 1.2248439361891350e-02  9.7870218978654962e-05 -3.0358714908799720e-03 1.2703253692999112e-02  1.4839869942348996e-04 -3.1882003389206402e-03 1.3736124872717886e-02  1.1387727852978915e-04 -3.3302092620976767e-03 1.4698896194873837e-02  5.4918886438751502e-05 -3.4191395363439236e-03 1.5333489910788490e-02  8.0795748163038492e-06 -3.4791599550076211e-03 1.5941872329810675e-02  -7.1011334029133944e-05 -3.5469930114848582e-03 1.6622215092598314e-02  -1.0676618629242092e-03 -4.3373255244234772e-03 1.7524243451785836e-02  0.0000000000000000e+00 0.0000000000000000e+00 0.0000000000000000e+00  9.0880268031400687e-06 -1.5427047813926573e-06 2.7805481516676303e-05  1.7862972674942810e-05 -5.1297130160933083e-06 1.0695335729862007e-04  2.5676712608950557e-05 -1.0632113401286004e-05 2.3301126028888480e-04  3.2588947909421380e-05 -1.7840967182848156e-05 4.0078202153827282e-04  3.8632455987685374e-05 -2.6556901150664467e-05 6.0518460177591343e-04  4.3856020016541039e-05 -3.6589894059938467e-05 8.4137611519577535e-04  4.8320702747830744e-05 -4.7760413564453262e-05 1.1048522389234588e-03  5.2088901511500996e-05 -5.9901461439053899e-05 1.3914895685006893e-03  5.5216300763321198e-05 -7.2858620301844313e-05 1.6975015193667622e-03  5.7755288228060666e-05 -8.6488978038432878e-05 2.0193882490899462e-03  5.9761429271775860e-05 -1.0066093797721936e-04 2.3539525607846009e-03  6.1292873197629839e-05 -1.1525546316970831e-04 2.6983322093680029e-03  6.2408026444534784e-05 -1.3016705929787479e-04 3.0499967861760059e-03  6.3167798395449173e-05 -1.4530397663506579e-04 3.4067493855117130e-03  6.3637573958512825e-05 -1.6058912857888866e-04 3.7667576723656865e-03  6.3885860030574035e-05 -1.7596175817504098e-04 4.1285781876930711e-03  6.3983182353509016e-05 -1.9137850091972686e-04 4.4911661692264397e-03  6.4001835792080252e-05 -2.0681400162191104e-04 4.8538910624124267e-03  0.0000000000000000e+00 0.0000000000000000e+00 0.0000000000000000e+00  9.2273199925589175e-06 -2.3035793321763902e-06 2.7347977954901204e-05  1.8636369790269914e-05 -5.7553306956623957e-06 1.0644809824575625e-04  2.6959033214382380e-05 -1.1184897788291819e-05 2.3246125992052005e-04  3.4327638320310764e-05 -1.8325651294990834e-05 4.0018977678726528e-04  4.0775539811294340e-05 -2.6977062932684508e-05 6.0455382255081400e-04  4.6353034786871912e-05 -3.6950092938983566e-05 8.4071086469453098e-04  5.1123786674974049e-05 -4.8065715446471680e-05 1.1041572321926992e-03  5.5153827948273125e-05 -6.0156452004980704e-05 1.3907697980153253e-03  5.8502384603492706e-05 -7.3067255974586969e-05 1.6967614993094833e-03  6.1224640723234094e-05 -8.6655277991788310e-05 2.0186316258197492e-03  6.3378953612133922e-05 -1.0078928393910358e-04 2.3531824296773272e-03  6.5026855270983847e-05 -1.1535030178124038e-04 2.6975514500103891e-03  6.6230246604062171e-05 -1.3023289134425468e-04 3.0492079666770951e-03  6.7053420973744969e-05 -1.4534564579531537e-04 3.4059546616350199e-03  6.7565524530470268e-05 -1.6061181395840286e-04 3.7659587315768905e-03  6.7839283351920905e-05 -1.7597079718477144e-04 4.1277760113460392e-03  6.7949583630732795e-05 -1.9137923930706102e-04 4.4903606759099267e-03  6.7973138367711272e-05 -2.0681096789186660e-04 4.8530822868860738e-03  0.0000000000000000e+00 0.0000000000000000e+00 0.0000000000000000e+00  2.7900014477516750e-04 3.0772926105068418e-04 1.0335916280091973e-03  4.4920390008428891e-04 7.3559345998335142e-04 2.7773706284409793e-03  5.9297578257744515e-04 1.3338525810968384e-03 5.2817790270751766e-03  6.4444629591419551e-04 2.0303967446507589e-03 8.3067680470256724e-03  5.0130636383612667e-04 2.6489169517004405e-03 1.1043882571135099e-02  1.7780618097778649e-04 2.9527060082329506e-03 1.2175213619065921e-02  -6.9938794503625128e-05 2.8758897210683803e-03 1.1437500823130520e-02  -2.9728048404258108e-05 2.6772264259009768e-03 1.0669046389700461e-02  1.1920459653418932e-04 2.6317728356545183e-03 1.1282161447728190e-02  1.2285022515201460e-04 2.6904482523959854e-03 1.2215877741218841e-02  7.5669991423716679e-05 2.7066871434794043e-03 1.2490455411947087e-02  1.2882869065919056e-04 2.7282124511598459e-03 1.2930637407355575e-02  1.8327341692814456e-04 2.8242033178676948e-03 1.3957064326295798e-02  1.5382943465909164e-04 2.9355255987967501e-03 1.4876387548369752e-02  1.1067805342153801e-04 3.0221004451164040e-03 1.5550980257929205e-02  6.6757999602446808e-05 3.1163578487364198e-03 1.6328362616995273e-02  -4.6593267509575017e-05 3.3084541084231951e-03 1.6998747248035094e-02  -7.7947842340281293e-04 3.9118525799358836e-03 1.6433107230453124e-02  0.0000000000000000e+00 0.0000000000000000e+00 0.0000000000000000e+00  3.9151976928534918e-04 4.8976717203358898e-04 2.3039823934615775e-03  6.5304031737856399e-04 1.2440497910741902e-03 6.0545524554745066e-03  8.6663024013921945e-04 2.2937547423419156e-03 1.1364338854606876e-02  9.5024469664218344e-04 3.5359285061567552e-03 1.7725746081901292e-02  7.4552241677652484e-04 4.6749329066446505e-03 2.3477061682085146e-02  2.5855244492021135e-04 5.2903261461949925e-03 2.5973765602364807e-02  -1.3117816875366563e-04 5.2243761474581995e-03 2.4545292689004520e-02  -7.9734934807144269e-05 4.8901783756049380e-03 2.2660709423534559e-02  1.5501968921956369e-04 4.7916428552590689e-03 2.3323439478247589e-02  1.6211580672441516e-04 4.8920679162125216e-03 2.4809129079441716e-02  7.6031231108540390e-05 4.9346220613388407e-03 2.5122787973586549e-02  1.5309307626562034e-04 4.9777635345570736e-03 2.5656228823209108e-02  2.4350282978696067e-04 5.1489234656925424e-03 2.7327099888298775e-02  1.9484456249323304e-04 5.3586941091236240e-03 2.8893175710799635e-02