<?xml version="1.0"?>
<VTKFile type="UnstructuredGrid"  version="0.1"  >
<UnstructuredGrid>
<Piece  NumberOfPoints="760" NumberOfCells="3024">
<Points>
<DataArray  type="Float64"  NumberOfComponents="3"  format="ascii">0 0 0  0.05555555555555555 0 0  0.1111111111111111 0 0  0.1666666666666667 0 0  0.2222222222222222 0 0  0.2777777777777778 0 0  0.3333333333333333 0 0  0.3888888888888889 0 0  0.4444444444444444 0 0  0.5 0 0  0.5555555555555556 0 0  0.6111111111111112 0 0  0.6666666666666666 0 0  0.7222222222222222 0 0  0.7777777777777778 0 0  0.8333333333333334 0 0  0.8888888888888888 0 0  0.9444444444444444 0 0  1 0 0  0 0.01428571428571429 0  0.05555555555555555 0.01428571428571429 0  0.1111111111111111 0.01428571428571429 0  0.1666666666666667 0.01428571428571429 0  0.2222222222222222 0.01428571428571429 0  0.2777777777777778 0.01428571428571429 0  0.3333333333333333 0.01428571428571429 0  0.3888888888888889 0.01428571428571429 0  0.4444444444444444 0.01428571428571429 0  0.5 0.01428571428571429 0  0.5555555555555556 0.01428571428571429 0  0.6111111111111112 0.01428571428571429 0  0.6666666666666666 0.01428571428571429 0  0.7222222222222222 0.01428571428571429 0  0.7777777777777778 0.01428571428571429 0  0.8333333333333334 0.01428571428571429 0  0.8888888888888888 0.01428571428571429 0  0.9444444444444444 0.01428571428571429 0  1 0.01428571428571429 0  0 0.02857142857142857 0  0.05555555555555555 0.02857142857142857 0  0.1111111111111111 0.02857142857142857 0  0.1666666666666667 0.02857142857142857 0  0.2222222222222222 0.02857142857142857 0  0.2777777777777778 0.02857142857142857 0  0.3333333333333333 0.02857142857142857 0  0.3888888888888889 0.02857142857142857 0  0.4444444444444444 0.02857142857142857 0  0.5 0.02857142857142857 0  0.5555555555555556 0.02857142857142857 0  0.6111111111111112 0.02857142857142857 0  0.6666666666666666 0.02857142857142857 0  0.7222222222222222 0.02857142857142857 0  0.7777777777777778 0.02857142857142857 0  0.8333333333333334 0.02857142857142857 0  0.8888888888888888 0.02857142857142857 0  0.9444444444444444 0.02857142857142857 0  1 0.02857142857142857 0  0 0.04285714285714286 0  0.05555555555555555 0.04285714285714286 0  0.1111111111111111 0.04285714285714286 0  0.1666666666666667 0.04285714285714286 0  0.2222222222222222 0.04285714285714286 0  0.2777777777777778 0.04285714285714286 0  0.3333333333333333 0.04285714285714286 0  0.3888888888888889 0.04285714285714286 0  0.4444444444444444 0.04285714285714286 0  0.5 0.04285714285714286 0  0.5555555555555556 0.04285714285714286 0  0.6111111111111112 0.04285714285714286 0  0.6666666666666666 0.04285714285714286 0  0.7222222222222222 0.04285714285714286 0  0.7777777777777778 0.04285714285714286 0  0.8333333333333334 0.04285714285714286 0  0.8888888888888888 0.04285714285714286 0  0.9444444444444444 0.04285714285714286 0  1 0.04285714285714286 0  0 0.05714285714285715 0  0.05555555555555555 0.05714285714285715 0  0.1111111111111111 0.05714285714285715 0  0.1666666666666667 0.05714285714285715 0  0.2222222222222222 0.05714285714285715 0  0.2777777777777778 0.05714285714285715 0  0.3333333333333333 0.05714285714285715 0  0.3888888888888889 0.05714285714285715 0  0.4444444444444444 0.05714285714285715 0  0.5 0.05714285714285715 0  0.5555555555555556 0.05714285714285715 0  0.6111111111111112 0.05714285714285715 0  0.6666666666666666 0.05714285714285715 0  0.7222222222222222 0.05714285714285715 0  0.7777777777777778 0.05714285714285715 0  0.8333333333333334 0.05714285714285715 0  0.8888888888888888 0.05714285714285715 0  0.9444444444444444 0.05714285714285715 0  1 0.05714285714285715 0  0 0.07142857142857142 0  0.05555555555555555 0.07142857142857142 0  0.1111111111111111 0.07142857142857142 0  0.1666666666666667 0.07142857142857142 0  0.2222222222222222 0.07142857142857142 0  0.2777777777777778 0.07142857142857142 0  0.3333333333333333 0.07142857142857142 0  0.3888888888888889 0.07142857142857142 0  0.4444444444444444 0.07142857142857142 0  0.5 0.07142857142857142 0  0.5555555555555556 0.07142857142857142 0  0.6111111111111112 0.07142857142857142 0  0.6666666666666666 0.07142857142857142 0  0.7222222222222222 0.07142857142857142 0  0.7777777777777778 0.07142857142857142 0  0.8333333333333334 0.07142857142857142 0  0.8888888888888888 0.07142857142857142 0  0.9444444444444444 0.07142857142857142 0  1 0.07142857142857142 0  0 0.08571428571428573 0  0.05555555555555555 0.08571428571428573 0  0.1111111111111111 0.08571428571428573 0  0.1666666666666667 0.08571428571428573 0  0.2222222222222222 0.08571428571428573 0  0.2777777777777778 0.08571428571428573 0  0.3333333333333333 0.08571428571428573 0  0.3888888888888889 0.08571428571428573 0  0.4444444444444444 0.08571428571428573 0  0.5 0.08571428571428573 0  0.5555555555555556 0.08571428571428573 0  0.6111111111111112 0.08571428571428573 0  0.6666666666666666 0.08571428571428573 0  0.7222222222222222 0.08571428571428573 0  0.7777777777777778 0.08571428571428573 0  0.8333333333333334 0.08571428571428573 0  0.8888888888888888 0.08571428571428573 0  0.9444444444444444 0.08571428571428573 0  1 0.08571428571428573 0  0 0.1 0  0.05555555555555555 0.1 0  0.1111111111111111 0.1 0  0.1666666666666667 0.1 0  0.2222222222222222 0.1 0  0.2777777777777778 0.1 0  0.3333333333333333 0.1 0  0.3888888888888889 0.1 0  0.4444444444444444 0.1 0  0.5 0.1 0  0.5555555555555556 0.1 0  0.6111111111111112 0.1 0  0.6666666666666666 0.1 0  0.7222222222222222 0.1 0  0.7777777777777778 0.1 0  0.8333333333333334 0.1 0  0.8888888888888888 0.1 0  0.9444444444444444 0.1 0  1 0.1 0  0 0 0.01  0.05555555555555555 0 0.01  0.1111111111111111 0 0.01  0.1666666666666667 0 0.01  0.2222222222222222 0 0.01  0.2777777777777778 0 0.01  0.3333333333333333 0 0.01  0.3888888888888889 0 0.01  0.4444444444444444 0 0.01  0.5 0 0.01  0.5555555555555556 0 0.01  0.6111111111111112 0 0.01  0.6666666666666666 0 0.01  0.7222222222222222 0 0.01  0.7777777777777778 0 0.01  0.8333333333333334 0 0.01  0.8888888888888888 0 0.01  0.9444444444444444 0 0.01  1 0 0.01  0 0.01428571428571429 0.01  0.05555555555555555 0.01428571428571429 0.01  0.1111111111111111 0.01428571428571429 0.01  0.1666666666666667 0.01428571428571429 0.01  0.2222222222222222 0.01428571428571429 0.01  0.2777777777777778 0.01428571428571429 0.01  0.3333333333333333 0.01428571428571429 0.01  0.3888888888888889 0.01428571428571429 0.01  0.4444444444444444 0.01428571428571429 0.01  0.5 0.01428571428571429 0.01  0.5555555555555556 0.01428571428571429 0.01  0.6111111111111112 0.01428571428571429 0.01  0.6666666666666666 0.01428571428571429 0.01  0.7222222222222222 0.01428571428571429 0.01  0.7777777777777778 0.01428571428571429 0.01  0.8333333333333334 0.01428571428571429 0.01  0.8888888888888888 0.01428571428571429 0.01  0.9444444444444444 0.01428571428571429 0.01  1 0.01428571428571429 0.01  0 0.02857142857142857 0.01  0.05555555555555555 0.02857142857142857 0.01  0.1111111111111111 0.02857142857142857 0.01  0.1666666666666667 0.02857142857142857 0.01  0.2222222222222222 0.02857142857142857 0.01  0.2777777777777778 0.02857142857142857 0.01  0.3333333333333333 0.02857142857142857 0.01  0.3888888888888889 0.02857142857142857 0.01  0.4444444444444444 0.02857142857142857 0.01  0.5 0.02857142857142857 0.01  0.5555555555555556 0.02857142857142857 0.01  0.6111111111111112 0.02857142857142857 0.01  0.6666666666666666 0.02857142857142857 0.01  0.7222222222222222 0.02857142857142857 0.01  0.7777777777777778 0.02857142857142857 0.01  0.8333333333333334 0.02857142857142857 0.01  0.8888888888888888 0.02857142857142857 0.01  0.9444444444444444 0.02857142857142857 0.01  1 0.02857142857142857 0.01  0 0.04285714285714286 0.01  0.05555555555555555 0.04285714285714286 0.01  0.1111111111111111 0.04285714285714286 0.01  0.1666666666666667 0.04285714285714286 0.01  0.2222222222222222 0.04285714285714286 0.01  0.2777777777777778 0.04285714285714286 0.01  0.3333333333333333 0.04285714285714286 0.01  0.3888888888888889 0.04285714285714286 0.01  0.4444444444444444 0.04285714285714286 0.01  0.5 0.04285714285714286 0.01  0.5555555555555556 0.04285714285714286 0.01  0.6111111111111112 0.04285714285714286 0.01  0.6666666666666666 0.04285714285714286 0.01  0.7222222222222222 0.04285714285714286 0.01  0.7777777777777778 0.04285714285714286 0.01  0.8333333333333334 0.04285714285714286 0.01  0.8888888888888888 0.04285714285714286 0.01  0.9444444444444444 0.04285714285714286 0.01  1 0.04285714285714286 0.01  0 0.05714285714285715 0.01  0.05555555555555555 0.05714285714285715 0.01  0.1111111111111111 0.05714285714285715 0.01  0.1666666666666667 0.05714285714285715 0.01  0.2222222222222222 0.05714285714285715 0.01  0.2777777777777778 0.05714285714285715 0.01  0.3333333333333333 0.05714285714285715 0.01  0.3888888888888889 0.05714285714285715 0.01  0.4444444444444444 0.05714285714285715 0.01  0.5 0.05714285714285715 0.01  0.5555555555555556 0.05714285714285715 0.01  0.6111111111111112 0.05714285714285715 0.01  0.6666666666666666 0.05714285714285715 0.01  0.7222222222222222 0.05714285714285715 0.01  0.7777777777777778 0.05714285714285715 0.01  0.8333333333333334 0.05714285714285715 0.01  0.8888888888888888 0.05714285714285715 0.01  0.9444444444444444 0.05714285714285715 0.01  1 0.05714285714285715 0.01  0 0.07142857142857142 0.01  0.05555555555555555 0.07142857142857142 0.01  0.1111111111111111 0.07142857142857142 0.01  0.1666666666666667 0.07142857142857142 0.01  0.2222222222222222 0.07142857142857142 0.01  0.2777777777777778 0.07142857142857142 0.01  0.3333333333333333 0.07142857142857142 0.01  0.3888888888888889 0.07142857142857142 0.01  0.4444444444444444 0.07142857142857142 0.01  0.5 0.07142857142857142 0.01  0.5555555555555556 0.07142857142857142 0.01  0.6111111111111112 0.07142857142857142 0.01  0.6666666666666666 0.07142857142857142 0.01  0.7222222222222222 0.07142857142857142 0.01  0.7777777777777778 0.07142857142857142 0.01  0.8333333333333334 0.07142857142857142 0.01  0.8888888888888888 0.07142857142857142 0.01  
[...]
<PointData  Vectors="f_36"> 
<DataArray  type="Float64"  Name="f_36"  NumberOfComponents="3" format="ascii">0.0000000000000000e+00 0.0000000000000000e+00 0.0000000000000000e+00  -1.8166376524277794e-03 3.3334428805758313e-03 -7.0671886077952493e-03  -2.6764839568511364e-03 7.1493263260030302e-03 -1.7484720164386795e-02  -2.7212828679509193e-03 1.1075654643304948e-02 -2.9795225643449278e-02  -1.6204417280234358e-03 1.3774665781030098e-02 -3.9670261557642833e-02  -3.4219948540762044e-06 1.4253629423164205e-02 -4.2227079911909209e-02  5.3457001494443474e-04 1.3383840776445931e-02 -3.8735926659747816e-02  -1.4375380153460908e-05 1.3010256849826431e-02 -3.7293238785721446e-02  -2.3282866401625089e-04 1.3255587906044945e-02 -3.9027893902785209e-02  -1.5871299184157156e-04 1.3364744460002548e-02 -3.9619012177047830e-02  -2.2504455206234474e-04 1.3456490768901647e-02 -4.0209328309502169e-02  -5.1882917175459532e-05 1.3452958974964823e-02 -4.1064752769474758e-02  -9.1319904528608875e-06 1.3245457701861694e-02 -4.0358022776185568e-02  -3.6098823776187710e-04 1.3477633089040075e-02 -4.0943632533849840e-02  -4.7448507644915801e-04 1.4145141442690702e-02 -4.3643352900785803e-02  -2.4694375145510882e-04 1.4623471153691813e-02 -4.5690281642162670e-02  1.0084257289702361e-04 1.4784972899895900e-02 -4.6761384318148656e-02  7.5377623535510070e-04 1.4816219659705769e-02 -4.7193920492714529e-02  1.6203244439384507e-03 1.5604676325638859e-02 -4.6510544528560821e-02  0.0000000000000000e+00 0.0000000000000000e+00 0.0000000000000000e+00  -1.7089687814263045e-03 2.7831654886274586e-03 -4.1414372354220902e-03  -2.5214282846118723e-03 6.2208716247458334e-03 -1.1115341889534737e-02  -2.6272177488933335e-03 9.8870678499424353e-03 -1.9804535085705392e-02  -1.6759293009838184e-03 1.2542434233756819e-02 -2.7137289912083005e-02  -1.3039653322789626e-04 1.3161776422718102e-02 -2.9255235943678466e-02  5.3979195627354220e-04 1.2402836275993454e-02 -2.6635486971163497e-02  4.3925225288187984e-05 1.2004942889742881e-02 -2.5515153660826986e-02  -2.6070987256940716e-04 1.2220674619223817e-02 -2.7004344388120625e-02  -1.6516465487924963e-04 1.2339091198479210e-02 -2.7555587864949865e-02  -2.1408536594772309e-04 1.2429283968215432e-02 -2.8062732702106151e-02  -9.2928703718544783e-05 1.2448509987216781e-02 -2.8917056235019500e-02  -3.1251386921635417e-08 1.2254716869090548e-02 -2.8459325262463891e-02  -3.2009356893332317e-04 1.2427523655723681e-02 -2.8852142137866070e-02  -4.8901554723392189e-04 1.3037178243673290e-02 -3.0951725236746375e-02  -2.8502795283323813e-04 1.3510998310032829e-02 -3.2593588067849719e-02  3.9449222301758454e-06 1.3692232812911698e-02 -3.3536865015973930e-02  4.4001458495166839e-04 1.3763230985097061e-02 -3.4128747930995067e-02  1.6402725570513221e-03 1.4917219445399272e-02 -3.4368642369220971e-02  0.0000000000000000e+00 0.0000000000000000e+00 0.0000000000000000e+00  -1.0366927986736078e-03 1.6274178965278731e-03 -1.6514934178315211e-03  -1.5576054350598175e-03 3.8438715996484030e-03 -4.8816025461363580e-03  -1.6534897976055898e-03 6.3548021824998101e-03 -9.1230647024850304e-03  -1.1078468743243068e-03 8.2904758225200298e-03 -1.2908382635046678e-02  -1.6277599127373653e-04 8.8305162152306077e-03 -1.4195363749876089e-02  3.0160342014019174e-04 8.3053014339769821e-03 -1.2977201987072773e-02  7.5594703394061289e-06 7.9880777331327504e-03 -1.2492094287731773e-02  -2.1971414939778570e-04 8.1546475599846447e-03 -1.3464403202937425e-02  -1.5720052452659924e-04 8.2583544197844302e-03 -1.3936539185787432e-02  -1.8066214463064158e-04 8.3326110852929014e-03 -1.4358459732215953e-02  -1.2430046785526493e-04 8.3795260300414658e-03 -1.5043553126692021e-02  -5.1687062275331656e-05 8.2448682053059361e-03 -1.5005744795025840e-02  -2.4233621521139404e-04 8.3331394369334788e-03 -1.5335274500525197e-02  -3.6990746104136670e-04 8.7601893623231088e-03 -1.6595595713947142e-02  -2.5170656687441414e-04 9.1203977007831075e-03 -1.7641973589186882e-02  -8.8893530578822120e-05 9.2866154305435659e-03 -1.8343669103874083e-02  4.4940202242215833e-05 9.3347317189000235e-03 -1.8915418449477802e-02  1.7142229164759844e-03 1.0923431309113468e-02 -1.9728240991313380e-02  0.0000000000000000e+00 0.0000000000000000e+00 0.0000000000000000e+00  -2.1591744577513778e-05 1.7949248585459631e-06 -3.2093573287269320e-05  -4.1068632962321784e-05 5.6920555284611439e-06 -1.2043246020301577e-04  -5.8451527076015225e-05 1.1675299804102950e-05 -2.6073471050936585e-04  -7.3745597788252418e-05 1.9491032931593244e-05 -4.4698233086482432e-04  -8.7069145125596479e-05 2.8933409492211741e-05 -6.7341880195055930e-04  -9.8568957627279838e-05 3.9803831964503926e-05 -9.3469630612900804e-04  -1.0838279262832191e-04 5.1915708773505402e-05 -1.2258967926032927e-03  -1.1663239895081697e-04 6.5093623880563904e-05 -1.5424511348510767e-03  -1.2344203136093357e-04 7.9171429357831940e-05 -1.8801152169331029e-03  -1.2894276412008177e-04 9.3993428816904775e-05 -2.2350132393977734e-03  -1.3326732024903780e-04 1.0941629172626917e-04 -2.6036409603281243e-03  -1.3655246939695700e-04 1.2530980836223882e-04 -2.9828688298208623e-03  -1.3893519247237042e-04 1.4155804914297608e-04 -3.3699630550578833e-03  -1.4054957703339577e-04 1.5805942489666988e-04 -3.7625666247751589e-03  -1.4153597245129135e-04 1.7472718448910353e-04 -4.1586960779887161e-03  -1.4204543174684087e-04 1.9149223092826309e-04 -4.5567818221056025e-03  -1.4223598681524694e-04 2.0830508090683466e-04 -4.9556941596757605e-03  -1.4227038325624627e-04 2.2513787466579320e-04 -5.3547610152350203e-03  0.0000000000000000e+00 0.0000000000000000e+00 0.0000000000000000e+00  -2.0363123697913259e-05 2.9592463735583348e-06 -3.1758204698054354e-05  -4.0594234989122946e-05 6.7412812795490634e-06 -1.1994838770267962e-04  -5.8685252094592547e-05 1.2604441135881327e-05 -2.6018924364327707e-04  -7.4619280631706700e-05 2.0300922561598254e-05 -4.4638111561526127e-04  -8.8516110573811572e-05 2.9633093484171243e-05 -6.7276713183738466e-04  -1.0052513455513417e-04 4.0402633688231917e-05 -9.3400018962150994e-04  -1.1078979036250659e-04 5.2420891068769474e-05 -1.2251625581005765e-03  -1.1943508080409265e-04 6.5511871008724174e-05 -1.5416840592009536e-03  -1.2658641754576748e-04 7.9510347004475572e-05 -1.8793197848681854e-03  -1.3237773336802617e-04 9.4260807375020879e-05 -2.2341937581302532e-03  -1.3694486533070028e-04 1.0962005451418788e-04 -2.6028012960249160e-03  -1.4042748551024072e-04 1.2545818597132203e-04 -2.9820123827619394e-03  -1.4296693106673723e-04 1.4165883077966665e-04 -3.3690928758518804e-03  -1.4470110119249591e-04 1.5812041296368770e-04 -3.7616852288621908e-03  -1.4577316362894335e-04 1.7475707963137874e-04 -4.1578054391525386e-03  -1.4633802446479044e-04 1.9150033740476991e-04 -4.5558833855352228e-03  -1.4655829834320867e-04 2.0830086838599746e-04 -4.9547884002485703e-03  -1.4660173391178749e-04 2.2512925428089370e-04 -5.3538469626106203e-03  0.0000000000000000e+00 0.0000000000000000e+00 0.0000000000000000e+00  -1.1791030860235439e-03 -1.8483802314844878e-03 -2.6263769719980018e-03  -1.6144098581373091e-03 -4.2193268136318050e-03 -6.4968715430700026e-03  -1.5981154793219344e-03 -6.9046130801026012e-03 -1.1042642369441141e-02  -9.5285422474545981e-04 -9.0370087657280929e-03 -1.4628239774772581e-02  -3.7421516400345058e-05 -9.7475499630662616e-03 -1.5416915551452829e-02  2.5179972981108904e-04 -9.2278853228539345e-03 -1.4002057170518870e-02  -8.7923514357366708e-05 -8.7971373565219561e-03 -1.3751437056230852e-02  -2.3427721349779780e-04 -8.9095861480112965e-03 -1.4794461001043644e-02  -1.8810852293764963e-04 -8.9965426187932074e-03 -1.5189406435325639e-02  -2.2806125528546019e-04 -9.0295069174651434e-03 -1.5626309082817241e-02  -1.3904426555335286e-04 -9.0812897072524296e-03 -1.6293582992998348e-02  -8.3350157273055629e-05 -8.9314420822586491e-03 -1.6260703434906740e-02  -2.7634862068683162e-04 -8.8753203845114478e-03 -1.6607841360214596e-02  -3.8842304339702641e-04 -9.1804913625414750e-03 -1.7840104536552742e-02  -3.1172930152523198e-04 -9.5622233235689129e-03 -1.8901251401608806e-02  -1.5402302405321410e-04 -9.8486271034223163e-03 -1.9727261508115719e-02  1.2996762778867444e-04 -1.0175706896409059e-02 -2.0277462121787777e-02  1.1428414671763535e-03 -1.1596250132212072e-02 -2.0089014662762698e-02  0.0000000000000000e+00 0.0000000000000000e+00 0.0000000000000000e+00  -1.8373374363071318e-03 -2.4060613719068501e-03 -5.2595261384463209e-03  -2.5591813384548885e-03 -5.6922768231849104e-03 -1.2802909798728213e-02  -2.5594589950492688e-03 -9.4433415757163540e-03 -2.1595737413572257e-02  -1.5565497925495776e-03 -1.2530471560343702e-02 -2.8567592737770868e-02  -5.6112675958075179e-05 -1.3728211771198663e-02 -3.0248454588424074e-02  5.0234962630361728e-04 -1.3145889134864882e-02 -2.7520132352487521e-02  -4.2117471752492387e-05 -1.2509483820150847e-02 -2.6593996013297216e-02  -3.2351372898535710e-04 -1.2594002096069489e-02 -2.8140906480210299e-02  -2.2311738211340423e-04 -1.2712435114729529e-02 -2.8625763396002538e-02  -2.8188492031633479e-04 -1.2756701056983477e-02 -2.9088112740515863e-02  -1.6174154533771937e-04 -1.2829089241630209e-02 -2.9986133670538200e-02  -3.9164893647688950e-05 -1.2635942285753900e-02 -2.9617757183622178e-02  -3.3723031915335576e-04 -1.2524367363855413e-02 -2.9840111783423655e-02  -5.4093312040693622e-04 -1.2894571161285806e-02 -3.1736407436508879e-02  -4.0677827329282771e-04 -1.3420516982009649e-02 -3.3419261168013949e-02  -1.2719893112703607e-04 -1.3854834813468194e-02 -3.4662964873782488e-02  3.3791533619078500e-04 -1.4402415904425640e-02 -3.5400265680997398e-02  1.0615704921566260e-03 -1.6594450153901853e-02 -3.4983371578315332e-02  0.0000000000000000e+00 0.0000000000000000e+00 0.0000000000000000e+00  -1.8043199204068501e-03 -2.3348629482585087e-03 -7.3939457069682529e-03  -2.5996458205394708e-03 -5.8044928218865506e-03 -1.7824280564231108e-02  -2.6970085082036101e-03 -9.8042161721485586e-03 -2.9923019141043124e-02  -1.7610404790178993e-03 -1.3190988796342911e-02 -3.9634455251090252e-02  -1.6809977044738767e-04 -1.4627729629352885e-02 -4.2399001163447685e-02  5.9141168753202623e-04 -1.4108826995654031e-02 -3.9097967679654351e-02  2.4805364868810526e-05 -1.3417231597907146e-02 -3.7586401210072215e-02  -3.7709880723294734e-04 -1.3466836738781292e-02 -3.9294727440390954e-02  -2.3369850623731410e-04 -1.3584851396442705e-02 -3.9898652915403336e-02  -2.8444665825550039e-04 -1.3631943516019877e-02 -4.0373773921589390e-02  -2.1120497288052968e-04 -1.3715919723494443e-02 -4.1389034780168574e-02  -2.2399160074080466e-05 -1.3516941281595330e-02 -4.0867357183713426e-02  -3.0343050502976712e-04 -1.3375836330742071e-02 -4.0979087756230922e-02  -5.6847327596277813e-04 -1.3738215022886347e-02 -4.3254719383833906e-02  -4.1542658743131902e-04 -1.4293744896844424e-02 -4.5419096906560097e-02  -8.4987080487232565e-05 -1.4790369494017248e-02 -4.7041181262766157e-02  5.7382975275662958e-04 -1.5381686957591971e-02 -4.8106905479581255e-02  1.1896910729961405e-03 -1.7861594709515319e-02 -4.8450270704715817e-02  0.0000000000000000e+00 0.0000000000000000e+00 0.0000000000000000e+00  -7.3629908628826185e-04 1.2719193602110589e-03 -6.7704880485952518e-03  -1.1791085585451998e-03 2.9228855322122062e-03 -1.7095405280284408e-02  -1.2603946915654427e-03 4.6631015437378302e-03 -2.9346371982184229e-02  -8.3626984055824372e-04 5.9225737893359200e-03 -3.9260635911991554e-02  -1.0021089742117965e-04 6.2012178531606638e-03 -4.1898646626460714e-02  2.4666173899333236e-04 5.8113081614689626e-03 -3.8404516196251216e-02  5.5670240038302969e-05 5.6146506422548176e-03 -3.6902461655378700e-02  -7.3526376945497128e-05 5.7357655615574233e-03 -3.8635238269560189e-02  -5.9101926117646258e-05 5.8020407806849521e-03 -3.9239589448531710e-02  -1.0091290154975304e-04 5.8523620538635827e-03 -3.9821915685042036e-02  -3.9303309319144008e-05 5.8737515629050619e-03 -4.0694063803824475e-02  1.0761058778708750e-05 5.7779631419119307e-03 -3.9984387798004090e-02  -1.0241740593836515e-04 5.8653369120801706e-03 -4.0527156753097933e-02  -1.4047189738693476e-04 6.1796081125187639e-03 -4.3212214729724786e-02  -1.5970836133273565e-05 6.4186964786567425e-03 -4.5270858054023290e-02  2.2875526328432856e-04 6.5186909738949436e-03 -4.6350386523408206e-02  7.5059571279257372e-04 6.6826867725721913e-03 -4.6780431419570896e-02  1.4736822851285961e-03 7.5736508393495390e-03 -4.6095145516372504e-02  0.0000000000000000e+00 0.0000000000000000e+00 0.0000000000000000e+00  -7.8382501018034966e-04 1.1204975762002770e-03 -3.9294645487426240e-03  -1.2156593461921676e-03 2.5557557478399998e-03 -1.0814287416840974e-02  -1.3016794397230410e-03 4.1041178106955359e-03 -1.9437226141018841e-02  -8.8831185884805498e-04 5.2503118875782961e-03 -2.6779156583648687e-02  -1.3873279886553812e-04 5.5473956392262094e-03 -2.8943269340670714e-02  2.6005270670106993e-04 5.2394733185471979e-03 -2.6305407774123286e-02  7.3184955602481378e-05 5.0622402060816534e-03 -2.5128735377961179e-02  -9.4198199934683387e-05 5.1575242371092360e-03 -2.6623890076919992e-02  -6.9895585377774852e-05 5.2206151076176514e-03 -2.7192620552254795e-02  -1.0000339639541359e-04 5.2670715646460590e-03 -2.7689435641652108e-02  -5.2117613336884315e-05 5.2881596831907086e-03 -2.8558618183120894e-02  9.8328490643241775e-06 5.2100068133959041e-03 -2.8102875189169083e-02  -1.0830319844844592e-04 5.2810990423209627e-03 -2.8460386825813044e-02  -1.7487602626455468e-04 5.5522193582273824e-03 -3.0549835387763947e-02  -5.9903273387201033e-05 5.7684189295661350e-03 -3.2202596306628285e-02  1.3913724547394033e-04 5.8547237666751037e-03 -3.3149694306061295e-02  4.8120647811928475e-04 5.9661038046469111e-03 -3.3749553759915653e-02  1.3778643288351346e-03 6.9167142533538770e-03 -3.4090391231099561e-02  0.0000000000000000e+00 0.0000000000000000e+00 0.0000000000000000e+00  -5.1577144430378858e-04 6.7478769595431234e-04 -1.3991192980189527e-03  -7.9578389747460060e-04 1.5502160086945181e-03 -4.4148303635000276e-03  -8.5788095301411770e-04 2.5258719692659933e-03 -8.4497233948606868e-03  -6.0261956608748959e-04 3.2704624499632008e-03 -1.2113949961342733e-02  -1.2353350418145263e-04 3.4898602588788862e-03 -1.3376892508570619e-02  1.5077968077809178e-04 3.3147100203363674e-03 -1.2153340748565562e-02  3.5421939709058159e-05 3.2045859545281781e-03 -1.1645330507251138e-02  -8.9629391505300013e-05 3.2663018298151061e-03 -1.2623261629291286e-02  -7.3375829592225964e-05 3.3129850134510212e-03 -1.3107065387404006e-02  -8.6943229519159101e-05 3.3490291385347517e-03 -1.3519744116732272e-02  -6.3193083264076884e-05 3.3714094858397136e-03 -1.4214994781163679e-02  -2.0236836294201428e-05 3.3298173248053464e-03 -1.4185739480489658e-02  -9.6592745281634326e-05 3.3749060582424655e-03 -1.4487626329550665e-02  -1.5168914606431528e-04 3.5479483454509864e-03 -1.5722216643967116e-02  -8.3953639183653530e-05 3.6938877115293522e-03 -1.6758213295009022e-02  2.5691516579384224e-05 3.7611339331989962e-03 -1.7454788472158100e-02  1.4365921425420596e-04 3.7995145924652105e-03 -1.8027690283726243e-02  1.2156643589767153e-03 4.6320755586162785e-03 -1.8867960187770028e-02  0.0000000000000000e+00 0.0000000000000000e+00 0.0000000000000000e+00  -1.0170738070081642e-05 1.6665552937617039e-06 -3.1196576250389729e-05  -1.9939976090613802e-05 5.5229955030176909e-06 -1.1961368597194005e-04  -2.8586915993401047e-05 1.1439637446900920e-05 -2.6000364900926671e-04  -3.6195934500319766e-05 1.9196814431787825e-05 -4.4633947414441738e-04  -4.2827222072841610e-05 2.8585880648761801e-05 -6.7285914639576600e-04  -4.8553326407804005e-05 3.9409040687628168e-05 -9.3421386769430262e-04  -5.3443480224777461e-05 5.1479193825359862e-05 -1.2254858642527691e-03  -5.7558519513425050e-05 6.4620047513125963e-05 -1.5421064333756421e-03  -6.0959491989578787e-05 7.8665241720213080e-05 -1.8798313199149569e-03  -6.3710989801090033e-05 9.3458943141116189e-05 -2.2347845122564986e-03  -6.5878495511774402e-05 1.0885752414198650e-04 -2.6034616866323834e-03  -6.7529304760589659e-05 1.2473056723403400e-04 -2.9827331375406633e-03  -6.8731214534771041e-05 1.4096170598592222e-04 -3.3698650645761614e-03  -6.9550524306519041e-05 1.5744894463197930e-04 -3.7625004882103829e-03  -7.0056036157342943e-05 1.7410542366732824e-04 -4.1586556538682033e-03  -7.0321770384918164e-05 1.9086179667072216e-04 -4.5567605534710580e-03  -7.0425193972599204e-05 2.0766807755402423e-04 -4.9556851285205948e-03  -7.0444836434478447e-05 2.2449477541090809e-04 -5.3547543416214019e-03  0.0000000000000000e+00 0.0000000000000000e+00 0.0000000000000000e+00  -1.0300634681335036e-05 2.5152312388281429e-06 -3.0683793197613451e-05  -2.0758890377532347e-05 6.2162485420655341e-06 -1.1904777412230215e-04  -2.9957589552546665e-05 1.2048543816550623e-05 -2.5938705179274634e-04  -3.8062028441883406e-05 1.9728474570896437e-05 -4.4567451109625984e-04  -4.5133056142149960e-05 2.9046176765058885e-05 -6.7215045379508717e-04  -5.1245683901754938e-05 3.9803782206874561e-05 -9.3346704838887450e-04  -5.6472622198457013e-05 5.1813269668563000e-05 -1.2247066672282220e-03  -6.0877605348804517e-05 6.4897889702209203e-05 -1.5412997982652481e-03  -6.4523943016927206e-05 7.8891629390697140e-05 -1.8790015498566103e-03  -6.7479096706923864e-05 9.3638842380163969e-05 -2.2339356126668906e-03  -6.9811789579303727e-05 1.0899598368789818e-04 -2.6025972329933515e-03  -7.1592654047923800e-05 1.2483279409637274e-04 -2.9818562419244433e-03  -7.2893316411715156e-05 1.4103276918454107e-04 -3.3689783745214320e-03  -7.3783922609673916e-05 1.5749390407946985e-04 -3.7616061891381503e-03  -7.4337114956619829e-05 1.7412976787186237e-04 -4.1577554977326372e-03  -7.4631370104251781e-05 1.9087139067300340e-04 -4.5558557286129184e-03  -7.4749083038915911e-05 2.0766881710985151e-04 -4.9547759356819831e-03  -7.4774015245812235e-05 2.2449151316891692e-04 -5.3538413881533183e-03  0.0000000000000000e+00 0.0000000000000000e+00 0.0000000000000000e+00  -5.8442366149607009e-04 -6.6146303395122675e-04 -2.2930483178589889e-03  -8.3271293392151271e-04 -1.4868182882692737e-03 -5.7407545738980071e-03  -8.6073848616500105e-04 -2.4340578744817269e-03 -9.7923589641190426e-03  -5.6844037397197971e-04 -3.1909732522667120e-03 -1.2961176956693538e-02  -8.5748430594501522e-05 -3.4516175615388117e-03 -1.3548032921634551e-02  1.3498533767573943e-04 -3.2706057749124534e-03 -1.2134358368025492e-02  -1.3736162704630952e-05 -3.1036164924539760e-03 -1.1940923620574508e-02  -1.2467224963188373e-04 -3.1231370503587911e-03 -1.3002439119056346e-02  -1.1034704599489964e-04 -3.1398094912031900e-03 -1.3385653569453810e-02  -1.2832008303766243e-04 -3.1394571149980940e-03 -1.3806150566037879e-02  -9.1724712085154735e-05 -3.1439631905440342e-03 -1.4470048326884961e-02  -4.5493837450412910e-05 -3.0765505221268261e-03 -1.4450259186035307e-02  -1.2640521117886330e-04 -3.0370062288257774e-03 -1.4797680118772376e-02  -1.8837961697633422e-04 -3.1206785961021134e-03 -1.5992151779439065e-02  -1.4093374691740126e-04 -3.2396354557439576e-03 -1.6988745776647950e-02  -3.4035524861982769e-05 -3.3328246176030940e-03 -1.7750334456374844e-02  1.2263113193073860e-04 -3.4839737514513035e-03 -1.8213241876920166e-02  8.8813317003489441e-04 -4.0992301770825142e-03 -1.7499018168019437e-02  0.0000000000000000e+00 0.0000000000000000e+00 0.0000000000000000e+00  -8.2981510155572414e-04 -1.0514828703450474e-03 -5.0458838939906646e-03  -1.2343398367241627e-03 -2.5227055145446162e-03 -1.2438134149195566e-02  -1.2883496605343000e-03 -4.2189570499603091e-03 -2.1033540976371268e-02  -8.6195688281307306e-04 -5.6322020414234916e-03 -2.7849711116694792e-02  -1.2282246127709779e-04 -6.2011521486462339e-03 -2.9441696152498340e-02  2.4264551703880963e-04 -5.9496799741683825e-03 -2.6657230880540689e-02  1.8237025542266519e-05 -5.6467487773397291e-03 -2.5710201409958722e-02  -1.6636731315315009e-04 -5.6614810775775862e-03 -2.7286836821786960e-02  -1.3797641747867714e-04 -5.7001768816646592e-03 -2.7786941351474671e-02  -1.64373135461