<?xml version="1.0"?>
<VTKFile type="UnstructuredGrid"  version="0.1"  >
<UnstructuredGrid>
<Piece  NumberOfPoints="760" NumberOfCells="3024">
<Points>
<DataArray  type="Float64"  NumberOfComponents="3"  format="ascii">0 0 0  0.05555555555555555 0 0  0.1111111111111111 0 0  0.1666666666666667 0 0  0.2222222222222222 0 0  0.2777777777777778 0 0  0.3333333333333333 0 0  0.3888888888888889 0 0  0.4444444444444444 0 0  0.5 0 0  0.5555555555555556 0 0  0.6111111111111112 0 0  0.6666666666666666 0 0  0.7222222222222222 0 0  0.7777777777777778 0 0  0.8333333333333334 0 0  0.8888888888888888 0 0  0.9444444444444444 0 0  1 0 0  0 0.01428571428571429 0  0.05555555555555555 0.01428571428571429 0  0.1111111111111111 0.01428571428571429 0  0.1666666666666667 0.01428571428571429 0  0.2222222222222222 0.01428571428571429 0  0.2777777777777778 0.01428571428571429 0  0.3333333333333333 0.01428571428571429 0  0.3888888888888889 0.01428571428571429 0  0.4444444444444444 0.01428571428571429 0  0.5 0.01428571428571429 0  0.5555555555555556 0.01428571428571429 0  0.6111111111111112 0.01428571428571429 0  0.6666666666666666 0.01428571428571429 0  0.7222222222222222 0.01428571428571429 0  0.7777777777777778 0.01428571428571429 0  0.8333333333333334 0.01428571428571429 0  0.8888888888888888 0.01428571428571429 0  0.9444444444444444 0.01428571428571429 0  1 0.01428571428571429 0  0 0.02857142857142857 0  0.05555555555555555 0.02857142857142857 0  0.1111111111111111 0.02857142857142857 0  0.1666666666666667 0.02857142857142857 0  0.2222222222222222 0.02857142857142857 0  0.2777777777777778 0.02857142857142857 0  0.3333333333333333 0.02857142857142857 0  0.3888888888888889 0.02857142857142857 0  0.4444444444444444 0.02857142857142857 0  0.5 0.02857142857142857 0  0.5555555555555556 0.02857142857142857 0  0.6111111111111112 0.02857142857142857 0  0.6666666666666666 0.02857142857142857 0  0.7222222222222222 0.02857142857142857 0  0.7777777777777778 0.02857142857142857 0  0.8333333333333334 0.02857142857142857 0  0.8888888888888888 0.02857142857142857 0  0.9444444444444444 0.02857142857142857 0  1 0.02857142857142857 0  0 0.04285714285714286 0  0.05555555555555555 0.04285714285714286 0  0.1111111111111111 0.04285714285714286 0  0.1666666666666667 0.04285714285714286 0  0.2222222222222222 0.04285714285714286 0  0.2777777777777778 0.04285714285714286 0  0.3333333333333333 0.04285714285714286 0  0.3888888888888889 0.04285714285714286 0  0.4444444444444444 0.04285714285714286 0  0.5 0.04285714285714286 0  0.5555555555555556 0.04285714285714286 0  0.6111111111111112 0.04285714285714286 0  0.6666666666666666 0.04285714285714286 0  0.7222222222222222 0.04285714285714286 0  0.7777777777777778 0.04285714285714286 0  0.8333333333333334 0.04285714285714286 0  0.8888888888888888 0.04285714285714286 0  0.9444444444444444 0.04285714285714286 0  1 0.04285714285714286 0  0 0.05714285714285715 0  0.05555555555555555 0.05714285714285715 0  0.1111111111111111 0.05714285714285715 0  0.1666666666666667 0.05714285714285715 0  0.2222222222222222 0.05714285714285715 0  0.2777777777777778 0.05714285714285715 0  0.3333333333333333 0.05714285714285715 0  0.3888888888888889 0.05714285714285715 0  0.4444444444444444 0.05714285714285715 0  0.5 0.05714285714285715 0  0.5555555555555556 0.05714285714285715 0  0.6111111111111112 0.05714285714285715 0  0.6666666666666666 0.05714285714285715 0  0.7222222222222222 0.05714285714285715 0  0.7777777777777778 0.05714285714285715 0  0.8333333333333334 0.05714285714285715 0  0.8888888888888888 0.05714285714285715 0  0.9444444444444444 0.05714285714285715 0  1 0.05714285714285715 0  0 0.07142857142857142 0  0.05555555555555555 0.07142857142857142 0  0.1111111111111111 0.07142857142857142 0  0.1666666666666667 0.07142857142857142 0  0.2222222222222222 0.07142857142857142 0  0.2777777777777778 0.07142857142857142 0  0.3333333333333333 0.07142857142857142 0  0.3888888888888889 0.07142857142857142 0  0.4444444444444444 0.07142857142857142 0  0.5 0.07142857142857142 0  0.5555555555555556 0.07142857142857142 0  0.6111111111111112 0.07142857142857142 0  0.6666666666666666 0.07142857142857142 0  0.7222222222222222 0.07142857142857142 0  0.7777777777777778 0.07142857142857142 0  0.8333333333333334 0.07142857142857142 0  0.8888888888888888 0.07142857142857142 0  0.9444444444444444 0.07142857142857142 0  1 0.07142857142857142 0  0 0.08571428571428573 0  0.05555555555555555 0.08571428571428573 0  0.1111111111111111 0.08571428571428573 0  0.1666666666666667 0.08571428571428573 0  0.2222222222222222 0.08571428571428573 0  0.2777777777777778 0.08571428571428573 0  0.3333333333333333 0.08571428571428573 0  0.3888888888888889 0.08571428571428573 0  0.4444444444444444 0.08571428571428573 0  0.5 0.08571428571428573 0  0.5555555555555556 0.08571428571428573 0  0.6111111111111112 0.08571428571428573 0  0.6666666666666666 0.08571428571428573 0  0.7222222222222222 0.08571428571428573 0  0.7777777777777778 0.08571428571428573 0  0.8333333333333334 0.08571428571428573 0  0.8888888888888888 0.08571428571428573 0  0.9444444444444444 0.08571428571428573 0  1 0.08571428571428573 0  0 0.1 0  0.05555555555555555 0.1 0  0.1111111111111111 0.1 0  0.1666666666666667 0.1 0  0.2222222222222222 0.1 0  0.2777777777777778 0.1 0  0.3333333333333333 0.1 0  0.3888888888888889 0.1 0  0.4444444444444444 0.1 0  0.5 0.1 0  0.5555555555555556 0.1 0  0.6111111111111112 0.1 0  0.6666666666666666 0.1 0  0.7222222222222222 0.1 0  0.7777777777777778 0.1 0  0.8333333333333334 0.1 0  0.8888888888888888 0.1 0  0.9444444444444444 0.1 0  1 0.1 0  0 0 0.01  0.05555555555555555 0 0.01  0.1111111111111111 0 0.01  0.1666666666666667 0 0.01  0.2222222222222222 0 0.01  0.2777777777777778 0 0.01  0.3333333333333333 0 0.01  0.3888888888888889 0 0.01  0.4444444444444444 0 0.01  0.5 0 0.01  0.5555555555555556 0 0.01  0.6111111111111112 0 0.01  0.6666666666666666 0 0.01  0.7222222222222222 0 0.01  0.7777777777777778 0 0.01  0.8333333333333334 0 0.01  0.8888888888888888 0 0.01  0.9444444444444444 0 0.01  1 0 0.01  0 0.01428571428571429 0.01  0.05555555555555555 0.01428571428571429 0.01  0.1111111111111111 0.01428571428571429 0.01  0.1666666666666667 0.01428571428571429 0.01  0.2222222222222222 0.01428571428571429 0.01  0.2777777777777778 0.01428571428571429 0.01  0.3333333333333333 0.01428571428571429 0.01  0.3888888888888889 0.01428571428571429 0.01  0.4444444444444444 0.01428571428571429 0.01  0.5 0.01428571428571429 0.01  0.5555555555555556 0.01428571428571429 0.01  0.6111111111111112 0.01428571428571429 0.01  0.6666666666666666 0.01428571428571429 0.01  0.7222222222222222 0.01428571428571429 0.01  0.7777777777777778 0.01428571428571429 0.01  0.8333333333333334 0.01428571428571429 0.01  0.8888888888888888 0.01428571428571429 0.01  0.9444444444444444 0.01428571428571429 0.01  1 0.01428571428571429 0.01  0 0.02857142857142857 0.01  0.05555555555555555 0.02857142857142857 0.01  0.1111111111111111 0.02857142857142857 0.01  0.1666666666666667 0.02857142857142857 0.01  0.2222222222222222 0.02857142857142857 0.01  0.2777777777777778 0.02857142857142857 0.01  0.3333333333333333 0.02857142857142857 0.01  0.3888888888888889 0.02857142857142857 0.01  0.4444444444444444 0.02857142857142857 0.01  0.5 0.02857142857142857 0.01  0.5555555555555556 0.02857142857142857 0.01  0.6111111111111112 0.02857142857142857 0.01  0.6666666666666666 0.02857142857142857 0.01  0.7222222222222222 0.02857142857142857 0.01  0.7777777777777778 0.02857142857142857 0.01  0.8333333333333334 0.02857142857142857 0.01  0.8888888888888888 0.02857142857142857 0.01  0.9444444444444444 0.02857142857142857 0.01  1 0.02857142857142857 0.01  0 0.04285714285714286 0.01  0.05555555555555555 0.04285714285714286 0.01  0.1111111111111111 0.04285714285714286 0.01  0.1666666666666667 0.04285714285714286 0.01  0.2222222222222222 0.04285714285714286 0.01  0.2777777777777778 0.04285714285714286 0.01  0.3333333333333333 0.04285714285714286 0.01  0.3888888888888889 0.04285714285714286 0.01  0.4444444444444444 0.04285714285714286 0.01  0.5 0.04285714285714286 0.01  0.5555555555555556 0.04285714285714286 0.01  0.6111111111111112 0.04285714285714286 0.01  0.6666666666666666 0.04285714285714286 0.01  0.7222222222222222 0.04285714285714286 0.01  0.7777777777777778 0.04285714285714286 0.01  0.8333333333333334 0.04285714285714286 0.01  0.8888888888888888 0.04285714285714286 0.01  0.9444444444444444 0.04285714285714286 0.01  1 0.04285714285714286 0.01  0 0.05714285714285715 0.01  0.05555555555555555 0.05714285714285715 0.01  0.1111111111111111 0.05714285714285715 0.01  0.1666666666666667 0.05714285714285715 0.01  0.2222222222222222 0.05714285714285715 0.01  0.2777777777777778 0.05714285714285715 0.01  0.3333333333333333 0.05714285714285715 0.01  0.3888888888888889 0.05714285714285715 0.01  0.4444444444444444 0.05714285714285715 0.01  0.5 0.05714285714285715 0.01  0.5555555555555556 0.05714285714285715 0.01  0.6111111111111112 0.05714285714285715 0.01  0.6666666666666666 0.05714285714285715 0.01  0.7222222222222222 0.05714285714285715 0.01  0.7777777777777778 0.05714285714285715 0.01  0.8333333333333334 0.05714285714285715 0.01  0.8888888888888888 0.05714285714285715 0.01  0.9444444444444444 0.05714285714285715 0.01  1 0.05714285714285715 0.01  0 0.07142857142857142 0.01  0.05555555555555555 0.07142857142857142 0.01  0.1111111111111111 0.07142857142857142 0.01  0.1666666666666667 0.07142857142857142 0.01  0.2222222222222222 0.07142857142857142 0.01  0.2777777777777778 0.07142857142857142 0.01  0.3333333333333333 0.07142857142857142 0.01  0.3888888888888889 0.07142857142857142 0.01  0.4444444444444444 0.07142857142857142 0.01  0.5 0.07142857142857142 0.01  0.5555555555555556 0.07142857142857142 0.01  0.6111111111111112 0.07142857142857142 0.01  0.6666666666666666 0.07142857142857142 0.01  0.7222222222222222 0.07142857142857142 0.01  0.7777777777777778 0.07142857142857142 0.01  0.8333333333333334 0.07142857142857142 0.01  0.8888888888888888 0.07142857142857142 0.01  
[...]
<PointData  Vectors="f_36"> 
<DataArray  type="Float64"  Name="f_36"  NumberOfComponents="3" format="ascii">0.0000000000000000e+00 0.0000000000000000e+00 0.0000000000000000e+00  -1.2424575005857530e-04 -1.7808023791636895e-03 7.5951197079111524e-03  -1.2581871307484568e-03 -8.9303898882665150e-04 3.1329263012383314e-03  -7.6042136042713167e-04 3.0710394740308814e-04 -1.9322900573226630e-03  -1.7532993199485450e-04 6.9062921622733660e-04 -2.7673796234854793e-03  -1.0073138673517066e-04 8.9845375769010110e-04 -3.3270645341730238e-03  -8.2339251454591916e-05 1.0674080130309237e-03 -3.7434512022804655e-03  -7.9645315321211213e-05 1.2162692272380073e-03 -4.1224133744058554e-03  -8.4359352369754547e-05 1.3738321115666337e-03 -4.5306304740792116e-03  -8.8194719183356331e-05 1.5391631522635283e-03 -4.9577501696795884e-03  -9.2348888495890228e-05 1.7122702404314539e-03 -5.4054713472611333e-03  -9.4658772708754567e-05 1.8915526802675189e-03 -5.8722873154733119e-03  -9.7010468557753816e-05 2.0775475460408500e-03 -6.3439480616888817e-03  -1.0669842979794515e-04 2.2757174886221094e-03 -6.8626187520500429e-03  -1.1321684561550769e-04 2.4852560075858099e-03 -7.3370973518235311e-03  -2.6891213700159144e-04 2.8435483962092290e-03 -7.9260339580777255e-03  1.4121249248904693e-04 3.2035632107730960e-03 -1.0052354360180002e-02  1.3248068148433419e-03 2.7449646186403433e-03 -9.0926677441107856e-03  2.1065982859852215e-03 2.3624412580871448e-03 -4.9108569542731665e-03  0.0000000000000000e+00 0.0000000000000000e+00 0.0000000000000000e+00  2.0611042176467442e-04 -1.6495438790177974e-03 5.8825874418778267e-03  -1.1285977489017462e-03 -8.9887478495117104e-04 2.5218289715325075e-03  -8.1567185970490949e-04 2.7792268096527706e-04 -1.4621867563489664e-03  -1.8701061294704101e-04 6.8372298096832697e-04 -2.0028265824697370e-03  -1.0566790720214137e-04 8.7686256034548123e-04 -2.3570702553440651e-03  -9.2815336061545791e-05 1.0273001435846716e-03 -2.6578748403220790e-03  -8.9002020709904927e-05 1.1556579320990479e-03 -2.9280375125619196e-03  -9.5098435625008779e-05 1.2902010840393963e-03 -3.2254880912338697e-03  -9.9584336967252550e-05 1.4312158013619993e-03 -3.5366734440120100e-03  -1.0409152538355193e-04 1.5787939654180831e-03 -3.8631803564598772e-03  -1.0743409755091853e-04 1.7315567207319606e-03 -4.2038961130478553e-03  -1.0982421947164432e-04 1.8897594062200029e-03 -4.5469917314393581e-03  -1.1791129647480405e-04 2.0580867567805169e-03 -4.9214197540838915e-03  -1.2203275402532704e-04 2.2303570348024358e-03 -5.2534579622042004e-03  -2.5397411470877733e-04 2.5345664815065012e-03 -5.5731204054360875e-03  4.1952117182426313e-06 2.8935403677132943e-03 -7.3555331515599521e-03  1.0276024115252335e-03 2.4985436085732927e-03 -6.8895854830528158e-03  1.9657962578521304e-03 2.2027722884325760e-03 -3.4853673967193662e-03  0.0000000000000000e+00 0.0000000000000000e+00 0.0000000000000000e+00  2.2704399112358722e-04 -1.2250343877300061e-03 3.1064106239649006e-03  -6.6022233078526910e-04 -7.0173670997340429e-04 1.4473318038354134e-03  -5.4385931917630664e-04 1.9727577018332148e-04 -6.6986753201681958e-04  -1.3675053615832609e-04 5.0364676597658051e-04 -9.4015367746843389e-04  -7.7925880080925993e-05 6.2591335170038276e-04 -1.1209664765592848e-03  -7.4347675535090226e-05 7.1897554626069874e-04 -1.3050409591861768e-03  -7.2692076696306235e-05 7.9754856342331986e-04 -1.4761590530223958e-03  -7.8118319780481351e-05 8.7969650690689007e-04 -1.6671102463472918e-03  -8.2115192912171977e-05 9.6575545751928179e-04 -1.8679136293439456e-03  -8.5839562925063608e-05 1.0557348017782566e-03 -2.0791505570099118e-03  -8.8781872485956247e-05 1.1488821702757385e-03 -2.2994915578594369e-03  -9.1015308530526941e-05 1.2446895268773646e-03 -2.5229129107887508e-03  -9.4819097209127427e-05 1.3466211569333531e-03 -2.7608001679077436e-03  -9.7496523656777421e-05 1.4425318933543952e-03 -2.9831555812312484e-03  -1.7555591702832584e-04 1.6239411233523820e-03 -3.1216428694811581e-03  -6.2063148661366791e-05 1.9169221392140677e-03 -4.1737737612471248e-03  5.1120001621844104e-04 1.6596264857111236e-03 -4.1158809482147651e-03  1.3247243829183049e-03 1.5068186340488770e-03 -2.3143210060332354e-03  0.0000000000000000e+00 0.0000000000000000e+00 0.0000000000000000e+00  -4.4638330624063804e-06 -4.9012299630389053e-08 -6.3431028739481797e-06  -8.5807775921284357e-06 -3.8860271837185613e-07 -2.4230553139243691e-05  -1.2324611292697550e-05 -9.3291166721257337e-07 -5.2992200881458600e-05  -1.5681413317645162e-05 -1.6551007423167098e-06 -9.1541186391195050e-05  -1.8663448988483132e-05 -2.5225276725060916e-06 -1.3883104387408659e-04  -2.1283579084940633e-05 -3.5064372200811580e-06 -1.9384793876980384e-04  -2.3555845321921176e-05 -4.5822864147570825e-06 -2.5561316466072323e-04  -2.5496067220821263e-05 -5.7289892357342257e-06 -3.2318814300009475e-04  -2.7122023552845925e-05 -6.9288633352861069e-06 -3.9567944610588294e-04  -2.8453674686110393e-05 -8.1673299215585972e-06 -4.7224481129450133e-04  -2.9513293179477230e-05 -9.4326280781165989e-06 -5.5209949105885310e-04  -3.0325584799913554e-05 -1.0715522770089722e-05 -6.3452296358028207e-04  -3.0917751948867575e-05 -1.2009005505482915e-05 -7.1886597234095174e-04  -3.1319608407786793e-05 -1.3308108899778848e-05 -8.0455749071974556e-04  -3.1563564566913763e-05 -1.4609168981123841e-05 -8.9111273451978983e-04  -3.1683320604340773e-05 -1.5910080435041696e-05 -9.7813981713268860e-04  -3.1720348983293572e-05 -1.7211208452993536e-05 -1.0653372350291435e-03  -3.1724189595722412e-05 -1.8511017937273099e-05 -1.1525427168537648e-03  0.0000000000000000e+00 0.0000000000000000e+00 0.0000000000000000e+00  -3.9964038526170817e-06 1.9227198134020088e-07 -6.2796519577854353e-06  -8.0883626964208091e-06 -1.6646925070685158e-07 -2.4147788201217298e-05  -1.1821587577121877e-05 -7.3259969248314667e-07 -5.2906390807651402e-05  -1.5173992429932805e-05 -1.4767285053740743e-06 -9.1452159741238891e-05  -1.8158154269110779e-05 -2.3652587958477052e-06 -1.3873906600066221e-04  -2.0785928915963774e-05 -3.3694825229841663e-06 -1.9375322114415549e-04  -2.3070222945827396e-05 -4.4647803738308426e-06 -2.5551598795379668e-04  -2.5025788222011490e-05 -5.6299688343468707e-06 -3.2308880242430514e-04  -2.6669364211185891e-05 -6.8472420262770984e-06 -3.9557824477763463e-04  -2.8019932791382574e-05 -8.1018877982927544e-06 -4.7214204933607688e-04  -2.9098849942935661e-05 -9.3820042308449488e-06 -5.5199545649532505e-04  -2.9929971241124727e-05 -1.0678210828432451e-05 -6.3441792209061921e-04  -3.0539710528486525e-05 -1.1983348346689668e-05 -7.1876016178373326e-04  -3.0957177244792521e-05 -1.3292291727640945e-05 -8.0445109054576856e-04  -3.1214223180862527e-05 -1.4601331227263028e-05 -8.9100588813604631e-04  -3.1343994145293974e-05 -1.5908160408165860e-05 -9.7803251262742878e-04  -3.1386175861095381e-05 -1.7212089028644636e-05 -1.0652292118515439e-03  -3.1390676371134843e-05 -1.8512343385306841e-05 -1.1524336094130441e-03  0.0000000000000000e+00 0.0000000000000000e+00 0.0000000000000000e+00  1.5870123277382045e-05 1.2506190966019022e-03 3.1489751310120472e-03  -6.7528475898200773e-04 8.3332944701616199e-04 9.2358237040614309e-04  -4.4082974735850706e-04 -1.5592429145369741e-04 -1.0391606222177067e-03  -1.1625305601502962e-04 -5.9853095764323349e-04 -1.1304670942049353e-03  -7.9864871231388485e-05 -7.4583734977435830e-04 -1.3264235890597393e-03  -7.2985603940238823e-05 -8.3512081326664257e-04 -1.4898511281136234e-03  -7.6759711445392441e-05 -9.1588742103279012e-04 -1.6620308942025040e-03  -8.2349788138799267e-05 -9.9850925968937381e-04 -1.8505597949276572e-03  -8.7132654104752640e-05 -1.0855162826788041e-03 -2.0504428968596282e-03  -9.1393465524501039e-05 -1.1767156687762079e-03 -2.2606925037760486e-03  -9.4259751273749232e-05 -1.2718538631637619e-03 -2.4800936954632500e-03  -9.7046470043215388e-05 -1.3703869775444539e-03 -2.7018141287094115e-03  -1.0291950100788558e-04 -1.4719346592707838e-03 -2.9445615994112650e-03  -1.0117767874468143e-04 -1.5783858559981355e-03 -3.1620722676680680e-03  -1.8854534917168766e-04 -1.7650019845561770e-03 -3.3540501476710368e-03  -7.7289951614886729e-05 -2.1626967877209011e-03 -4.2598132704473688e-03  5.0194019299849575e-04 -2.1771985501859814e-03 -4.2822257655972373e-03  9.6239102587775702e-04 -1.9796823015018426e-03 -2.5575200922001943e-03  0.0000000000000000e+00 0.0000000000000000e+00 0.0000000000000000e+00  1.3088533002644375e-04 1.6436081406204564e-03 5.8019413401067298e-03  -1.1076557588000015e-03 1.3157449782852475e-03 2.0003006077230108e-03  -7.4380750458385091e-04 1.1329273594186604e-05 -1.7281951663904293e-03  -1.6193462270959309e-04 -6.9793320298200975e-04 -2.1177812356211077e-03  -1.0912571998743047e-04 -9.5226618799089423e-04 -2.4829210416978864e-03  -1.0004280156117013e-04 -1.0918288367766542e-03 -2.7680321721920082e-03  -1.0193259227476795e-04 -1.2117706193094269e-03 -3.0404702818080647e-03  -1.0995470737344777e-04 -1.3322635143856168e-03 -3.3386720046171547e-03  -1.1597046109464902e-04 -1.4587085645083365e-03 -3.6521401610588415e-03  -1.2151400595785883e-04 -1.5913450981870005e-03 -3.9816430235594556e-03  -1.2543958501576695e-04 -1.7300179775249895e-03 -4.3256215764892088e-03  -1.2878873846614635e-04 -1.8739971154978197e-03 -4.6741400159711274e-03  -1.3796545416956482e-04 -2.0212747244816361e-03 -5.0524868142668199e-03  -1.3290108015963229e-04 -2.1808440978745855e-03 -5.4087461932069937e-03  -2.5330719575542866e-04 -2.4627735838897808e-03 -5.7658876410299773e-03  -9.1482018711346494e-05 -3.0728299497389654e-03 -7.4566399944050420e-03  8.3418079528452369e-04 -3.2137651694363009e-03 -7.4514333167942327e-03  1.5638390150124147e-03 -3.0382351226440050e-03 -4.1082231376842419e-03  0.0000000000000000e+00 0.0000000000000000e+00 0.0000000000000000e+00  3.8741269443739784e-04 1.6837084413623947e-03 7.4585573532819733e-03  -1.1925172704607095e-03 1.4886206625132022e-03 3.1727971791626823e-03  -8.6818200781103600e-04 1.6132808853249085e-04 -1.7746790285339256e-03  -1.4454609898367467e-04 -6.3084309782412322e-04 -2.6538056174153276e-03  -1.0195200835991847e-04 -9.3810542238771991e-04 -3.2357468855538545e-03  -1.0140446943547642e-04 -1.1021318686073726e-03 -3.6633568799710409e-03  -1.0030924775083362e-04 -1.2362565673055511e-03 -4.0414284689591802e-03  -1.0955703004830965e-04 -1.3688753300521552e-03 -4.4512197237620826e-03  -1.1541167253487116e-04 -1.5075835548519949e-03 -4.8803145327424181e-03  -1.2094575093470612e-04 -1.6531952574433953e-03 -5.3316546848211598e-03  -1.2502004684484012e-04 -1.8055398342845112e-03 -5.8027561394442817e-03  -1.2790932893710512e-04 -1.9640581491703157e-03 -6.2842624454368850e-03  -1.3693367368040115e-04 -2.1260382888548253e-03 -6.7966176094363560e-03  -1.2379510677820472e-04 -2.3032960256450614e-03 -7.3205828855748244e-03  -2.1004130796594152e-04 -2.6044105672895913e-03 -7.8862707242748284e-03  -1.1803936581630033e-04 -3.2911811810018257e-03 -1.0146729472759424e-02  8.6306471428553955e-04 -3.5450712647866669e-03 -1.0355316201381297e-02  1.8353255384779465e-03 -3.4986433615755569e-03 -6.2971624549381568e-03  0.0000000000000000e+00 0.0000000000000000e+00 0.0000000000000000e+00  -1.1467485690325348e-04 -8.1474303635081628e-04 7.5442641651174607e-03  -5.9815972079388488e-04 -5.2192501063772477e-04 3.1984314150876191e-03  -3.9511562104280765e-04 5.5581171075168600e-05 -1.9180211736215241e-03  -7.9941312121470582e-05 2.3675941684424501e-04 -2.7587742311621674e-03  -3.5930960841164231e-05 3.2340604030367830e-04 -3.2964608743312998e-03  -3.0726613216749206e-05 4.1150918782185416e-04 -3.7103312953487397e-03  -2.7584448579669458e-05 4.8654000267047353e-04 -4.0849272249014667e-03  -2.9386472174296125e-05 5.6681045128891862e-04 -4.4890780081492318e-03  -3.0572598575645726e-05 6.5159330820874141e-04 -4.9121600011177730e-03  -3.2095418296330940e-05 7.4037730391402737e-04 -5.3556525035032424e-03  -3.3036753557813107e-05 8.3232962635391679e-04 -5.8183081590019786e-03  -3.2367926107235432e-05 9.2765291450154085e-04 -6.2850689735429012e-03  -4.2933281559495273e-05 1.0297942394217525e-03 -6.7990615966842215e-03  -3.7561282080697601e-05 1.1269310197994846e-03 -7.2689068209881563e-03  -6.5977330279682871e-05 1.2903853212486113e-03 -7.8396548286274181e-03  1.4588350473071404e-04 1.5112871129183711e-03 -9.9922460882983788e-03  7.6965877201237145e-04 1.3720163761003043e-03 -9.1122378394222214e-03  1.3080352440564688e-03 1.2950867300900114e-03 -4.9658673291846462e-03  0.0000000000000000e+00 0.0000000000000000e+00 0.0000000000000000e+00  4.1399776079609446e-05 -7.0604209553889379e-04 5.8402393422540043e-03  -5.5095226680680804e-04 -4.6882729806890132e-04 2.5624421357080544e-03  -4.3654168428325965e-04 3.5045772464520586e-05 -1.4924799121027424e-03  -9.7141799523704265e-05 2.1760570428486101e-04 -2.0352334922421446e-03  -4.2696373613267479e-05 3.0260333959681554e-04 -2.3561432109736468e-03  -4.2227461958007818e-05 3.8005441656654651e-04 -2.6485429063776837e-03  -3.8369680960112176e-05 4.4540451407870110e-04 -2.9099850022683621e-03  -4.1232373591387184e-05 5.1434323765645745e-04 -3.1987692093254881e-03  -4.3122882907601879e-05 5.8719601512844831e-04 -3.5011111378881860e-03  -4.5041145231123966e-05 6.6348130323195707e-04 -3.8182727544174909e-03  -4.6735312820880730e-05 7.4242872957537543e-04 -4.1494328362068683e-03  -4.6759258593018523e-05 8.2434888110438187e-04 -4.4822014401041622e-03  -5.4290314262558959e-05 9.1268503971141362e-04 -4.8456693718763625e-03  -5.2474638882518354e-05 9.9591802109489096e-04 -5.1687227519057041e-03  -8.5938855889576310e-05 1.1321421823717094e-03 -5.4654426209349970e-03  7.0022468376220215e-05 1.3158539486820223e-03 -7.2634608160358684e-03  6.2543598935098637e-04 1.1907356857706359e-03 -6.8642038324812507e-03  1.2502100293799538e-03 1.1791524292088071e-03 -3.4878642026166945e-03  0.0000000000000000e+00 0.0000000000000000e+00 0.0000000000000000e+00  8.5010384706301918e-05 -4.4719305100287572e-04 3.0389502207993852e-03  -3.2257451776376085e-04 -2.8934983344848405e-04 1.4428246793162225e-03  -2.9906382445093999e-04 3.3302151040068054e-05 -6.9298722333147923e-04  -7.8099872303979333e-05 1.5782082674566358e-04 -9.4309359748222189e-04  -3.5229029354958735e-05 2.1268872514154210e-04 -1.0847512260027583e-03  -3.7781585917620380e-05 2.5676157816520667e-04 -1.2531302535145202e-03  -3.5837771444640708e-05 2.9332623910851392e-04 -1.4113754520113093e-03  -3.8592415039213296e-05 3.3145336541930511e-04 -1.5895509621913484e-03  -4.0610818025716120e-05 3.7161119507975751e-04 -1.7772876889593813e-03  -4.2408000858543493e-05 4.1361053005578422e-04 -1.9747690313736614e-03  -4.3966800920684665e-05 4.5707670566240215e-04 -2.1808891318114850e-03  -4.4772359552233809e-05 5.0191739185483954e-04 -2.3893409440918006e-03  -4.7893745487383830e-05 5.5077486851212471e-04 -2.6110494139634012e-03  -4.8139034128864612e-05 5.9574664007540270e-04 -2.8169676171572980e-03  -7.3330823452186298e-05 6.7146160504811007e-04 -2.9271911377561932e-03  3.4648506469947241e-06 7.8520379304946187e-04 -3.9782956306418276e-03  3.1803062867341700e-04 6.9806084148709866e-04 -3.9683098872213361e-03  8.3524338426685819e-04 7.4019159584150609e-04 -2.1881032324332925e-03  0.0000000000000000e+00 0.0000000000000000e+00 0.0000000000000000e+00  -2.1513680867886753e-06 -6.8767746085150570e-08 -6.1597728056836109e-06  -4.2565551341302382e-06 -4.0912068389086912e-07 -2.4059547017120404e-05  -6.1561628167826570e-06 -9.6023825773212626e-07 -5.2836621537916397e-05  -7.8588740652744451e-06 -1.6883661460993631e-06 -9.1401746186371157e-05  -9.3716334874384711e-06 -2.5614401027106341e-06 -1.3870731158683509e-04  -1.0701244601160916e-05 -3.5506901246617948e-06 -1.9373940587812859e-04  -1.1854905328168405e-05 -4.6315277541468596e-06 -2.5551923576521649e-04  -1.2840690479980196e-05 -5.7828407689234976e-06 -3.2310813957361006e-04  -1.3667627937565336e-05 -6.9869214326219058e-06 -3.9561260175953325e-04  -1.4345811557273622e-05 -8.2291705957557805e-06 -4.7219026435252039e-04  -1.4886468351396664e-05 -9.4978123441493614e-06 -5.5205627935463555e-04  -1.5302019148805493e-05 -1.0783601700799554e-05 -6.3449001954447816e-04  -1.5606119198446634e-05 -1.2079529289581330e-05 -7.1884212072254581e-04  -1.5813677868970902e-05 -1.3380636800481677e-05 -8.0454144018283851e-04  -1.5940955192584398e-05 -1.4683279488837359e-05 -8.9110307896213107e-04  -1.6004975613437911e-05 -1.5985469625952659e-05 -9.7813506496095240e-04  -1.6025979585381534e-05 -1.7287402347803988e-05 -1.0653355715434971e-03  -1.6028312749496500e-05 -1.8587855719994149e-05 -1.1525417646488440e-03  0.0000000000000000e+00 0.0000000000000000e+00 0.0000000000000000e+00  -1.9774760232790851e-06 1.0609034379097032e-07 -6.0652780683777765e-06  -4.0475890650339318e-06 -2.6283344260278859e-07 -2.3963735906317950e-05  -5.9067604921649734e-06 -8.2923805894709922e-07 -5.2739204899616416e-05  -7.5773747621133629e-06 -1.5716145171235355e-06 -9.1302070347257900e-05  -9.0655329091737787e-06 -2.4582968404257753e-06 -1.3860545699887831e-04  -1.0377072592780315e-05 -3.4606384970600904e-06 -1.9363557445376721e-04  -1.1518168280556592e-05 -4.5540220146010948e-06 -2.5541371798633989e-04  -1.2495957337839026e-05 -5.7172726885912556e-06 -3.2300123815853587e-04  -1.3318580096808787e-05 -6.9326054564039473e-06 -3.9550462530246879e-04  -1.3995312602193082e-05 -8.1853366294912503e-06 -4.7208151437496798e-04  -1.4536635132245687e-05 -9.4636009568624684e-06 -5.5194704083746417e-04  -1.4954294740001483e-05 -1.0758060855193913e-05 -6.3438054993694660e-04  -1.5261337584700691e-05 -1.2061610396122890e-05 -7.1873264446149830e-04  -1.5472166849154573e-05 -1.3369192150223315e-05 -8.0443211818235138e-04  -1.5602608123299700e-05 -1.4677098817845213e-05 -8.9099401559960319e-04  -1.5669213947282584e-05 -1.5983224716037766e-05 -9.7802623525938132e-04  -1.5691646344069547e-05 -1.7287318108517588e-05 -1.0652268373726212e-03  -1.5694430586863839e-05 -1.8588487827383759e-05 -1.1524328663494411e-03  0.0000000000000000e+00 0.0000000000000000e+00 0.0000000000000000e+00  3.3891586096187273e-05 4.2230474607369265e-04 2.9939463207657646e-03  -3.4063673613470404e-04 3.0681843775675477e-04 7.8051342155998336e-04  -2.6926178118334465e-04 -2.3421257147621405e-05 -1.0710338927797333e-03  -6.8579750259137391e-05 -2.0709816471751736e-04 -1.0441266659818686e-03  -4.1195696642092728e-05 -2.6916436533180426e-04 -1.1822808108739047e-03  -3.9906594753727374e-05 -2.9793533216916607e-04 -1.3249472650135822e-03  -4.1819689062820407e-05 -3.2693301851690677e-04 -1.4805729525414482e-03  -4.5188222240550841e-05 -3.5606184181237373e-04 -1.6534619929023712e-03  -4.7893137311322527e-05 -3.8674149256719202e-04 -1.8370742912287086e-03  -5.0281300790872646e-05 -4.1890094610511482e-04 -2.0302442843885033e-03  -5.2029894343303231e-05 -4.5250084713490795e-04 -2.2318981763646255e-03  -5.2717932665659293e-05 -4.8744078932653497e-04 -2.4349484495921224e-03  -5.8119504116834591e-05 -5.2246832414926711e-04 -2.6584511681489145e-03  -5.4340934599655077e-05 -5.6040592591767211e-04 -2.8569297331228379e-03  -7.6396254447165396e-05 -6.2567767300807347e-04 -3.0109219773947131e-03  -2.5507224148112026e-05 -7.7332107407085307e-04 -3.8616176666985188e-03  2.7603275381815981e-04 -8.0703316737045937e-04 -3.8853271783258793e-03  6.3803386855907848e-04 -8.1405199142978375e-04 -2.1062827097431771e-03  0.0000000000000000e+00 0.0000000000000000e+00 0.0000000000000000e+00  5.8016289588718241e-05 6.9051560433000753e-04 5.7398597440762519e-03  -5.3179136841344037e-04 5.9622915509978738e-04 1.9683710813087432e-03  -4.1979225129438449e-04 4.0887998662347110e-05 -1.7985288044859004e-03  -8.5666531689745145e-05 -3.1726898872694813e-04 -2.1329568286208318e-03  -4.9100707065513487e-05 -4.4772834933964911e-04 -2.4421582936710391e-03  -5.3026423615215609e-05 -5.0586016343205436e-04 -2.7131016522461914e-03  -5.3419476812589504e-05 -5.5838797738772450e-04 -2.9749908631358391e-03  -5.8488531127739852e-05 -6.1072462277638080e-04 -3.2642736227912351e-03  -6.1794453732591821e-05 -6.65