<?xml version="1.0"?>
<VTKFile type="UnstructuredGrid"  version="0.1"  >
<UnstructuredGrid>
<Piece  NumberOfPoints="760" NumberOfCells="3024">
<Points>
<DataArray  type="Float64"  NumberOfComponents="3"  format="ascii">0 0 0  0.05555555555555555 0 0  0.1111111111111111 0 0  0.1666666666666667 0 0  0.2222222222222222 0 0  0.2777777777777778 0 0  0.3333333333333333 0 0  0.3888888888888889 0 0  0.4444444444444444 0 0  0.5 0 0  0.5555555555555556 0 0  0.6111111111111112 0 0  0.6666666666666666 0 0  0.7222222222222222 0 0  0.7777777777777778 0 0  0.8333333333333334 0 0  0.8888888888888888 0 0  0.9444444444444444 0 0  1 0 0  0 0.01428571428571429 0  0.05555555555555555 0.01428571428571429 0  0.1111111111111111 0.01428571428571429 0  0.1666666666666667 0.01428571428571429 0  0.2222222222222222 0.01428571428571429 0  0.2777777777777778 0.01428571428571429 0  0.3333333333333333 0.01428571428571429 0  0.3888888888888889 0.01428571428571429 0  0.4444444444444444 0.01428571428571429 0  0.5 0.01428571428571429 0  0.5555555555555556 0.01428571428571429 0  0.6111111111111112 0.01428571428571429 0  0.6666666666666666 0.01428571428571429 0  0.7222222222222222 0.01428571428571429 0  0.7777777777777778 0.01428571428571429 0  0.8333333333333334 0.01428571428571429 0  0.8888888888888888 0.01428571428571429 0  0.9444444444444444 0.01428571428571429 0  1 0.01428571428571429 0  0 0.02857142857142857 0  0.05555555555555555 0.02857142857142857 0  0.1111111111111111 0.02857142857142857 0  0.1666666666666667 0.02857142857142857 0  0.2222222222222222 0.02857142857142857 0  0.2777777777777778 0.02857142857142857 0  0.3333333333333333 0.02857142857142857 0  0.3888888888888889 0.02857142857142857 0  0.4444444444444444 0.02857142857142857 0  0.5 0.02857142857142857 0  0.5555555555555556 0.02857142857142857 0  0.6111111111111112 0.02857142857142857 0  0.6666666666666666 0.02857142857142857 0  0.7222222222222222 0.02857142857142857 0  0.7777777777777778 0.02857142857142857 0  0.8333333333333334 0.02857142857142857 0  0.8888888888888888 0.02857142857142857 0  0.9444444444444444 0.02857142857142857 0  1 0.02857142857142857 0  0 0.04285714285714286 0  0.05555555555555555 0.04285714285714286 0  0.1111111111111111 0.04285714285714286 0  0.1666666666666667 0.04285714285714286 0  0.2222222222222222 0.04285714285714286 0  0.2777777777777778 0.04285714285714286 0  0.3333333333333333 0.04285714285714286 0  0.3888888888888889 0.04285714285714286 0  0.4444444444444444 0.04285714285714286 0  0.5 0.04285714285714286 0  0.5555555555555556 0.04285714285714286 0  0.6111111111111112 0.04285714285714286 0  0.6666666666666666 0.04285714285714286 0  0.7222222222222222 0.04285714285714286 0  0.7777777777777778 0.04285714285714286 0  0.8333333333333334 0.04285714285714286 0  0.8888888888888888 0.04285714285714286 0  0.9444444444444444 0.04285714285714286 0  1 0.04285714285714286 0  0 0.05714285714285715 0  0.05555555555555555 0.05714285714285715 0  0.1111111111111111 0.05714285714285715 0  0.1666666666666667 0.05714285714285715 0  0.2222222222222222 0.05714285714285715 0  0.2777777777777778 0.05714285714285715 0  0.3333333333333333 0.05714285714285715 0  0.3888888888888889 0.05714285714285715 0  0.4444444444444444 0.05714285714285715 0  0.5 0.05714285714285715 0  0.5555555555555556 0.05714285714285715 0  0.6111111111111112 0.05714285714285715 0  0.6666666666666666 0.05714285714285715 0  0.7222222222222222 0.05714285714285715 0  0.7777777777777778 0.05714285714285715 0  0.8333333333333334 0.05714285714285715 0  0.8888888888888888 0.05714285714285715 0  0.9444444444444444 0.05714285714285715 0  1 0.05714285714285715 0  0 0.07142857142857142 0  0.05555555555555555 0.07142857142857142 0  0.1111111111111111 0.07142857142857142 0  0.1666666666666667 0.07142857142857142 0  0.2222222222222222 0.07142857142857142 0  0.2777777777777778 0.07142857142857142 0  0.3333333333333333 0.07142857142857142 0  0.3888888888888889 0.07142857142857142 0  0.4444444444444444 0.07142857142857142 0  0.5 0.07142857142857142 0  0.5555555555555556 0.07142857142857142 0  0.6111111111111112 0.07142857142857142 0  0.6666666666666666 0.07142857142857142 0  0.7222222222222222 0.07142857142857142 0  0.7777777777777778 0.07142857142857142 0  0.8333333333333334 0.07142857142857142 0  0.8888888888888888 0.07142857142857142 0  0.9444444444444444 0.07142857142857142 0  1 0.07142857142857142 0  0 0.08571428571428573 0  0.05555555555555555 0.08571428571428573 0  0.1111111111111111 0.08571428571428573 0  0.1666666666666667 0.08571428571428573 0  0.2222222222222222 0.08571428571428573 0  0.2777777777777778 0.08571428571428573 0  0.3333333333333333 0.08571428571428573 0  0.3888888888888889 0.08571428571428573 0  0.4444444444444444 0.08571428571428573 0  0.5 0.08571428571428573 0  0.5555555555555556 0.08571428571428573 0  0.6111111111111112 0.08571428571428573 0  0.6666666666666666 0.08571428571428573 0  0.7222222222222222 0.08571428571428573 0  0.7777777777777778 0.08571428571428573 0  0.8333333333333334 0.08571428571428573 0  0.8888888888888888 0.08571428571428573 0  0.9444444444444444 0.08571428571428573 0  1 0.08571428571428573 0  0 0.1 0  0.05555555555555555 0.1 0  0.1111111111111111 0.1 0  0.1666666666666667 0.1 0  0.2222222222222222 0.1 0  0.2777777777777778 0.1 0  0.3333333333333333 0.1 0  0.3888888888888889 0.1 0  0.4444444444444444 0.1 0  0.5 0.1 0  0.5555555555555556 0.1 0  0.6111111111111112 0.1 0  0.6666666666666666 0.1 0  0.7222222222222222 0.1 0  0.7777777777777778 0.1 0  0.8333333333333334 0.1 0  0.8888888888888888 0.1 0  0.9444444444444444 0.1 0  1 0.1 0  0 0 0.01  0.05555555555555555 0 0.01  0.1111111111111111 0 0.01  0.1666666666666667 0 0.01  0.2222222222222222 0 0.01  0.2777777777777778 0 0.01  0.3333333333333333 0 0.01  0.3888888888888889 0 0.01  0.4444444444444444 0 0.01  0.5 0 0.01  0.5555555555555556 0 0.01  0.6111111111111112 0 0.01  0.6666666666666666 0 0.01  0.7222222222222222 0 0.01  0.7777777777777778 0 0.01  0.8333333333333334 0 0.01  0.8888888888888888 0 0.01  0.9444444444444444 0 0.01  1 0 0.01  0 0.01428571428571429 0.01  0.05555555555555555 0.01428571428571429 0.01  0.1111111111111111 0.01428571428571429 0.01  0.1666666666666667 0.01428571428571429 0.01  0.2222222222222222 0.01428571428571429 0.01  0.2777777777777778 0.01428571428571429 0.01  0.3333333333333333 0.01428571428571429 0.01  0.3888888888888889 0.01428571428571429 0.01  0.4444444444444444 0.01428571428571429 0.01  0.5 0.01428571428571429 0.01  0.5555555555555556 0.01428571428571429 0.01  0.6111111111111112 0.01428571428571429 0.01  0.6666666666666666 0.01428571428571429 0.01  0.7222222222222222 0.01428571428571429 0.01  0.7777777777777778 0.01428571428571429 0.01  0.8333333333333334 0.01428571428571429 0.01  0.8888888888888888 0.01428571428571429 0.01  0.9444444444444444 0.01428571428571429 0.01  1 0.01428571428571429 0.01  0 0.02857142857142857 0.01  0.05555555555555555 0.02857142857142857 0.01  0.1111111111111111 0.02857142857142857 0.01  0.1666666666666667 0.02857142857142857 0.01  0.2222222222222222 0.02857142857142857 0.01  0.2777777777777778 0.02857142857142857 0.01  0.3333333333333333 0.02857142857142857 0.01  0.3888888888888889 0.02857142857142857 0.01  0.4444444444444444 0.02857142857142857 0.01  0.5 0.02857142857142857 0.01  0.5555555555555556 0.02857142857142857 0.01  0.6111111111111112 0.02857142857142857 0.01  0.6666666666666666 0.02857142857142857 0.01  0.7222222222222222 0.02857142857142857 0.01  0.7777777777777778 0.02857142857142857 0.01  0.8333333333333334 0.02857142857142857 0.01  0.8888888888888888 0.02857142857142857 0.01  0.9444444444444444 0.02857142857142857 0.01  1 0.02857142857142857 0.01  0 0.04285714285714286 0.01  0.05555555555555555 0.04285714285714286 0.01  0.1111111111111111 0.04285714285714286 0.01  0.1666666666666667 0.04285714285714286 0.01  0.2222222222222222 0.04285714285714286 0.01  0.2777777777777778 0.04285714285714286 0.01  0.3333333333333333 0.04285714285714286 0.01  0.3888888888888889 0.04285714285714286 0.01  0.4444444444444444 0.04285714285714286 0.01  0.5 0.04285714285714286 0.01  0.5555555555555556 0.04285714285714286 0.01  0.6111111111111112 0.04285714285714286 0.01  0.6666666666666666 0.04285714285714286 0.01  0.7222222222222222 0.04285714285714286 0.01  0.7777777777777778 0.04285714285714286 0.01  0.8333333333333334 0.04285714285714286 0.01  0.8888888888888888 0.04285714285714286 0.01  0.9444444444444444 0.04285714285714286 0.01  1 0.04285714285714286 0.01  0 0.05714285714285715 0.01  0.05555555555555555 0.05714285714285715 0.01  0.1111111111111111 0.05714285714285715 0.01  0.1666666666666667 0.05714285714285715 0.01  0.2222222222222222 0.05714285714285715 0.01  0.2777777777777778 0.05714285714285715 0.01  0.3333333333333333 0.05714285714285715 0.01  0.3888888888888889 0.05714285714285715 0.01  0.4444444444444444 0.05714285714285715 0.01  0.5 0.05714285714285715 0.01  0.5555555555555556 0.05714285714285715 0.01  0.6111111111111112 0.05714285714285715 0.01  0.6666666666666666 0.05714285714285715 0.01  0.7222222222222222 0.05714285714285715 0.01  0.7777777777777778 0.05714285714285715 0.01  0.8333333333333334 0.05714285714285715 0.01  0.8888888888888888 0.05714285714285715 0.01  0.9444444444444444 0.05714285714285715 0.01  1 0.05714285714285715 0.01  0 0.07142857142857142 0.01  0.05555555555555555 0.07142857142857142 0.01  0.1111111111111111 0.07142857142857142 0.01  0.1666666666666667 0.07142857142857142 0.01  0.2222222222222222 0.07142857142857142 0.01  0.2777777777777778 0.07142857142857142 0.01  0.3333333333333333 0.07142857142857142 0.01  0.3888888888888889 0.07142857142857142 0.01  0.4444444444444444 0.07142857142857142 0.01  0.5 0.07142857142857142 0.01  0.5555555555555556 0.07142857142857142 0.01  0.6111111111111112 0.07142857142857142 0.01  0.6666666666666666 0.07142857142857142 0.01  0.7222222222222222 0.07142857142857142 0.01  0.7777777777777778 0.07142857142857142 0.01  0.8333333333333334 0.07142857142857142 0.01  0.8888888888888888 0.07142857142857142 0.01  
[...]
<PointData  Vectors="f_36"> 
<DataArray  type="Float64"  Name="f_36"  NumberOfComponents="3" format="ascii">0.0000000000000000e+00 0.0000000000000000e+00 0.0000000000000000e+00  -2.7342536142293435e-03 5.3018354131160739e-03 -1.2495551955487769e-02  -2.8957455281719263e-03 9.8972435644537025e-03 -2.6637627966874800e-02  -1.5208962955894983e-03 1.2670826582113928e-02 -3.6849730680073869e-02  3.8513388652366634e-04 1.2784340946449613e-02 -3.8461535745608753e-02  1.0545111157055555e-03 1.1289979888633344e-02 -3.2943935613806354e-02  3.6220685539685378e-04 1.0377427177727185e-02 -2.9489741418870834e-02  -4.2066527653628561e-05 1.0354227183747063e-02 -3.0310939781386145e-02  9.4792140763520980e-05 1.0210241777305970e-02 -3.0282904516248110e-02  1.6379762997175982e-04 9.8720134607551292e-03 -2.9363883606661964e-02  7.1742464395392331e-05 9.6037645109275059e-03 -2.8711230409517792e-02  2.8308285853846840e-05 9.4212497741997681e-03 -2.8641792687883784e-02  2.8081632813398480e-04 9.0101962830126253e-03 -2.8099638848540640e-02  2.6640265354777471e-04 8.3639374153018052e-03 -2.5817385852654515e-02  -1.4366990639390288e-04 8.2360939345808900e-03 -2.5318855425462070e-02  -2.4736948476761792e-04 8.5992974743370979e-03 -2.7004163752176281e-02  -2.4376021873387397e-05 8.8617827518131503e-03 -2.8155888002560130e-02  4.3804351936194510e-04 8.9938529754008366e-03 -2.8695187908733256e-02  1.0060211965092897e-03 9.5013434714300224e-03 -2.8233398063246689e-02  0.0000000000000000e+00 0.0000000000000000e+00 0.0000000000000000e+00  -2.6283488229221232e-03 4.5186265268499547e-03 -7.7905512736098758e-03  -2.8356292887811584e-03 8.7933378828208893e-03 -1.7727678783065286e-02  -1.6063135342704788e-03 1.1555332201663177e-02 -2.5324406911416592e-02  2.1937351247150095e-04 1.1869703045030754e-02 -2.6816203457622301e-02  1.0363761182512778e-03 1.0541958348851223e-02 -2.2739365428467578e-02  4.2929564207848565e-04 9.6248575039100115e-03 -2.0094771487793931e-02  -6.4631327926263873e-05 9.5719638031618870e-03 -2.0895634794811886e-02  6.3648707362234770e-05 9.4591822549855292e-03 -2.1039693286211299e-02  1.5500817064250963e-04 9.1526018059166804e-03 -2.0440632503271688e-02  7.6429983238136441e-05 8.9002829313409460e-03 -2.0041803273897370e-02  1.8055729806604861e-05 8.7384132169875828e-03 -2.0125952685892019e-02  2.2866560013264068e-04 8.3839952512302588e-03 -1.9960104939518154e-02  2.8683077825468413e-04 7.7776653951063717e-03 -1.8316124462945164e-02  -1.0016638871244728e-04 7.6103738139015721e-03 -1.7918307153827716e-02  -2.6884099944547040e-04 7.9318036839165270e-03 -1.9265590439976971e-02  -9.1054055518161980e-05 8.1910764558498963e-03 -2.0208446220642787e-02  2.3318051485354439e-04 8.3383742373101307e-03 -2.0756959873770558e-02  1.0092045210706546e-03 9.0690806587362602e-03 -2.0857936679814972e-02  0.0000000000000000e+00 0.0000000000000000e+00 0.0000000000000000e+00  -1.6061984828683678e-03 2.7617248329242184e-03 -3.3074912562126094e-03  -1.7827417004778396e-03 5.6505319760924138e-03 -8.1098924151043125e-03  -1.0612469125110414e-03 7.6818905028429724e-03 -1.2001279151827488e-02  6.0184700667009565e-05 8.0387291762170285e-03 -1.2967761321781006e-02  6.2462582268512441e-04 7.1282102375095505e-03 -1.0992522704461343e-02  2.7356200526227606e-04 6.4351323726642351e-03 -9.6689740762734323e-03  -7.2769873939064475e-05 6.4047757753811956e-03 -1.0226132946478948e-02  2.9925456887373808e-07 6.3579924857978731e-03 -1.0456897710706970e-02  6.5064646124023004e-05 6.1562375213120362e-03 -1.0275386586010102e-02  1.8720925053342250e-05 5.9860067958228211e-03 -1.0198956416933726e-02  -2.2360580466224108e-05 5.8947385409792918e-03 -1.0387209583467746e-02  9.4858535070644414e-05 5.6853404895305069e-03 -1.0509839348159990e-02  1.5512406756004789e-04 5.2587759588727167e-03 -9.8024795765544754e-03  -8.0152483354724546e-05 5.1122157857306999e-03 -9.6772813561345952e-03  -2.1193057468453343e-04 5.3387477882579871e-03 -1.0499119815239702e-02  -1.1631185016148377e-04 5.5411647475903970e-03 -1.1114768402516354e-02  6.5395270449063321e-07 5.6367102318182118e-03 -1.1551453251259393e-02  1.0444354103991259e-03 6.6158532053549697e-03 -1.2017020431841616e-02  0.0000000000000000e+00 0.0000000000000000e+00 0.0000000000000000e+00  -1.4385633837025966e-05 1.1961931661817966e-06 -2.1610171222170416e-05  -2.7162617931369402e-05 3.7551780012385531e-06 -8.0365778241974425e-05  -3.8387754873575741e-05 7.6369470835399508e-06 -1.7288419778543353e-04  -4.8128842227165157e-05 1.2647218253720478e-05 -2.9479034803853025e-04  -5.6522695578133840e-05 1.8632942954704378e-05 -4.4209020197394079e-04  -6.3693939464611155e-05 2.5455496632380453e-05 -6.1119662881026801e-04  -6.9742355512877516e-05 3.2990049442035306e-05 -7.9882388999128081e-04  -7.4764551346512043e-05 4.1121489443289359e-05 -1.0019366618641511e-03  -7.8862464354600851e-05 4.9744346538754103e-05 -1.2177869394301890e-03  -8.2136324509623099e-05 5.8764434993592933e-05 -1.4439173346249314e-03  -8.4682692404554902e-05 6.8098428796703613e-05 -1.6781457669585726e-03  -8.6597345489039881e-05 7.7673306389340561e-05 -1.9185574648855890e-03  -8.7977056643999836e-05 8.7426636587634507e-05 -2.1635097081309797e-03  -8.8912477094560315e-05 9.7306827183783553e-05 -2.4116360787978038e-03  -8.9485984066288690e-05 1.0727138893356650e-04 -2.6618059829434269e-03  -8.9782365720323304e-05 1.1728536742621411e-04 -2.9131107386066520e-03  -8.9892910359088202e-05 1.2732305017052229e-04 -3.1648929827719874e-03  -8.9912673293032197e-05 1.3737050456011596e-04 -3.4167624187607703e-03  0.0000000000000000e+00 0.0000000000000000e+00 0.0000000000000000e+00  -1.3573970025171883e-05 1.9618760867419594e-06 -2.1384532705136002e-05  -2.6857640986582789e-05 4.4326179096434987e-06 -8.0038407406056829e-05  -3.8545660593446038e-05 8.2272765908941729e-06 -1.7251276049590940e-04  -4.8692087904437012e-05 1.3155842192286693e-05 -2.9437920070862100e-04  -5.7439834334935494e-05 1.9068540076055961e-05 -4.4164450733955013e-04  -6.4921020390544244e-05 2.5824200666042422e-05 -6.1072162828518370e-04  -7.1239932476170091e-05 3.3296862274074307e-05 -7.9832363445508686e-04  -7.6494471702729424e-05 4.1372276330878308e-05 -1.0014142486538687e-03  -8.0789211797183621e-05 4.9945175626117101e-05 -1.2172453597395869e-03  -8.4227741123554364e-05 5.8921020576926279e-05 -1.4433593087625888e-03  -8.6909599990144527e-05 6.8216322940086008e-05 -1.6775736183396142e-03  -8.8933057224290855e-05 7.7758233444708181e-05 -1.9179731760551649e-03  -9.0397589945887249e-05 8.7484268871243037e-05 -2.1629150166266290e-03  -9.1397786792969907e-05 9.7341947699841822e-05 -2.4110325366939575e-03  -9.2018564577260036e-05 1.0728857467351325e-04 -2.6611948228608523e-03  -9.2345883437102740e-05 1.1728987427826110e-04 -2.9124930034328984e-03  -9.2473098147087022e-05 1.2732042884936986e-04 -3.1642695766151614e-03  -9.2497925928381350e-05 1.3736530828084193e-04 -3.4161336216785034e-03  0.0000000000000000e+00 0.0000000000000000e+00 0.0000000000000000e+00  -1.7495591098234506e-03 -3.0056743161242586e-03 -4.7586831578249750e-03  -1.7172069888815801e-03 -6.0753396747139123e-03 -9.9917369381931458e-03  -8.7670918792290828e-04 -8.3247311494259700e-03 -1.3619756886947732e-02  2.1872058893180371e-04 -8.8669069448817483e-03 -1.3983904963070542e-02  5.8581391097132650e-04 -7.9698230851640694e-03 -1.1724246829723811e-02  1.5738052509266771e-04 -7.1557440070031241e-03 -1.0646518969603240e-02  -9.1846985747151658e-05 -7.0598311689052820e-03 -1.1302657121292180e-02  -2.8096687290820761e-06 -7.0055079785732088e-03 -1.1403188180299820e-02  4.0588395322499222e-05 -6.7803479724296428e-03 -1.1201217028761026e-02  -1.2165394441274967e-05 -6.5562962645637326e-03 -1.1139617423971817e-02  -4.4336177740861868e-05 -6.4078657211995510e-03 -1.1297847102448168e-02  1.0070776794585962e-04 -6.2113061335654293e-03 -1.1359190339246964e-02  1.4593172123841103e-04 -5.7738023063509235e-03 -1.0619058496681769e-02  -7.2292635080097267e-05 -5.4791618690472835e-03 -1.0424661946430602e-02  -1.7873382013317119e-04 -5.5544117983151054e-03 -1.1124512429695721e-02  -1.0142764279210610e-04 -5.7078489743187192e-03 -1.1643033588057376e-02  8.0060397924686653e-05 -5.9108301277994799e-03 -1.1984566196920246e-02  6.9297059484853350e-04 -6.6994684447583821e-03 -1.1753954237707007e-02  0.0000000000000000e+00 0.0000000000000000e+00 0.0000000000000000e+00  -2.7682617094959353e-03 -3.8758124882086646e-03 -9.2871122014037220e-03  -2.7950976966314351e-03 -8.1804053707557316e-03 -1.9475599066069684e-02  -1.4677923116850160e-03 -1.1447968354270793e-02 -2.6644971933646906e-02  3.2607551319058665e-04 -1.2434778779041493e-02 -2.7617591981501280e-02  1.0223365569818736e-03 -1.1347798781826571e-02 -2.3392123827705689e-02  3.4173836235613947e-04 -1.0181621890642829e-02 -2.0982857148394703e-02  -1.2230437083320402e-04 -9.9684792016807404e-03 -2.1871216690034327e-02  3.2388226110964264e-05 -9.8952177825877528e-03 -2.1904212664791194e-02  1.1918594488606913e-04 -9.5947243193589236e-03 -2.1301200310083174e-02  3.9185125939164870e-05 -9.2700891171948758e-03 -2.0913731177830755e-02  -2.0772152168839629e-05 -9.0441349988646270e-03 -2.0906008927387257e-02  1.9696814861092484e-04 -8.7821082770579220e-03 -2.0775871365249648e-02  3.0754165413177310e-04 -8.2077000148577644e-03 -1.9200470813070157e-02  -3.9567421544780733e-05 -7.7792975522196590e-03 -1.8521212960110594e-02  -2.3792685805848693e-04 -7.8421402968135556e-03 -1.9537376871268115e-02  -8.7743910535293773e-05 -8.0569273958782297e-03 -2.0309235345150441e-02  2.1112895900655466e-04 -8.4031583787313822e-03 -2.0768619494322200e-02  6.7130813174473265e-04 -9.6571493534782504e-03 -2.0305300679861239e-02  0.0000000000000000e+00 0.0000000000000000e+00 0.0000000000000000e+00  -2.8179011073979376e-03 -3.7762960729110996e-03 -1.2727644429572613e-02  -2.9910854960619906e-03 -8.4020502813942147e-03 -2.6730200099842363e-02  -1.6993114991923450e-03 -1.2006000820958007e-02 -3.6798488290208833e-02  2.0857520451994768e-04 -1.3243484656774577e-02 -3.8664425028479818e-02  1.1408783196609248e-03 -1.2201598626647804e-02 -3.3409117309026785e-02  4.5529453661638086e-04 -1.0942935673417808e-02 -2.9919560472496491e-02  -1.6395720985428036e-04 -1.0668396553781628e-02 -3.0698902961952504e-02  8.2465450375957754e-06 -1.0586781529916812e-02 -3.0685453481213369e-02  1.2900278744231992e-04 -1.0275792048144107e-02 -2.9803241991659738e-02  4.8457241023275042e-05 -9.9253399592615574e-03 -2.9139795109574037e-02  -3.2956658800997107e-05 -9.6776790462673613e-03 -2.8926707533212678e-02  1.6023193713076488e-04 -9.4101236652210946e-03 -2.8600104886381615e-02  3.5166813762925887e-04 -8.8105941906655594e-03 -2.6505548539103002e-02  6.8377914127490589e-06 -8.3374551058353012e-03 -2.5425493482310178e-02  -2.5741639382787835e-04 -8.3814509222199622e-03 -2.6554366560849824e-02  -6.6967549088024355e-05 -8.6132537241442094e-03 -2.7530019480514568e-02  3.5005078390908415e-04 -8.9880681993268537e-03 -2.8182108248257551e-02  7.5720370739475326e-04 -1.0429104129375529e-02 -2.8125679342883732e-02  0.0000000000000000e+00 0.0000000000000000e+00 0.0000000000000000e+00  -1.1079568365016789e-03 2.0811083407439143e-03 -1.2055579862437320e-02  -1.3263125244695093e-03 4.1643608578448166e-03 -2.6201152408477479e-02  -7.8774228662486102e-04 5.4775514408206107e-03 -3.6481588963688652e-02  8.1636762379596020e-05 5.6086201347655242e-03 -3.8197289211910589e-02  4.9307192292250327e-04 4.9408639142166540e-03 -3.2691594541057072e-02  2.4001426215716697e-04 4.4885503102097962e-03 -2.9175784952660232e-02  9.5391114107900695e-06 4.4839226589155623e-03 -2.9997346059964597e-02  3.3845382754622117e-05 4.4472550294295064e-03 -3.0005551052648474e-02  7.5348283548148053e-05 4.3037819700795449e-03 -2.9094024523140638e-02  4.6171776300881673e-05 4.1859336434182919e-03 -2.8438020628441918e-02  3.3564722563728242e-06 4.1189581333481882e-03 -2.8379136693551733e-02  8.8827946489030213e-05 3.9639220982552754e-03 -2.7872819843135541e-02  1.0593274759645668e-04 3.6664411606766125e-03 -2.5594831098787262e-02  -4.1546930190013209e-05 3.5802818733509482e-03 -2.5062424689493989e-02  -6.6915045172818223e-05 3.7492717419117588e-03 -2.6742300918851294e-02  7.9477062124181164e-05 3.8883224827879798e-03 -2.7906040176056884e-02  4.2561341332564057e-04 4.0504023406773325e-03 -2.8446215175406221e-02  8.9284340807648053e-04 4.6159241650825375e-03 -2.7985113848823694e-02  0.0000000000000000e+00 0.0000000000000000e+00 0.0000000000000000e+00  -1.1964636326505975e-03 1.8306737253988162e-03 -7.4738502751235851e-03  -1.3985470993146466e-03 3.6431934641834398e-03 -1.7388558393634394e-02  -8.5190504941338454e-04 4.8416899630047772e-03 -2.5012529820666683e-02  3.8201505201618131e-05 5.0147905023868039e-03 -2.6565472704781851e-02  5.1129739305079479e-04 4.4650611614313164e-03 -2.2482624685811196e-02  2.7161099603081066e-04 4.0586547673348216e-03 -1.9780509451589993e-02  1.4456387346643795e-07 4.0340110597791336e-03 -2.0589551991439373e-02  2.5692547601705992e-05 4.0005699799303476e-03 -2.0771535079787365e-02  7.7245033226008855e-05 3.8766631476501658e-03 -2.0178315034031318e-02  5.0376600452549349e-05 3.7719910988873533e-03 -1.9776996362119943e-02  6.7123058817881537e-06 3.7102817951782615e-03 -1.9869300904892442e-02  8.6149468813868563e-05 3.5758836834064423e-03 -1.9734719976507224e-02  1.2678367379147213e-04 3.3185092416016374e-03 -1.8097638410165606e-02  -2.9018958549007057e-05 3.2313623653269295e-03 -1.7673768245872194e-02  -9.1434945019594160e-05 3.3695044749753517e-03 -1.9022334521200987e-02  2.2056508483011102e-05 3.4888588723175373e-03 -1.9976713295624823e-02  2.5763668461730544e-04 3.6117718951311083e-03 -2.0528868802851180e-02  8.3184701295971678e-04 4.2127111031430116e-03 -2.0689459602695633e-02  0.0000000000000000e+00 0.0000000000000000e+00 0.0000000000000000e+00  -7.9050126581752932e-04 1.1150042637869751e-03 -2.9319632056408989e-03  -9.2469703641819023e-04 2.2322223682953793e-03 -7.5263206536410870e-03  -5.7837131979565886e-04 3.0117599086312168e-03 -1.1297565559402716e-02  -5.7483366036349931e-06 3.1576169750497326e-03 -1.2258322646096168e-02  3.2101757799077931e-04 2.8317563387916514e-03 -1.0306721085407342e-02  1.7714756711648304e-04 2.5736019932423278e-03 -8.9812705287622679e-03  -1.4519569510933283e-05 2.5535885918483367e-03 -9.5598539392785318e-03  -1.2144759283727120e-06 2.5357695628484048e-03 -9.8274391363600694e-03  3.5712885690947212e-05 2.4627099610999479e-03 -9.6622719230357087e-03  1.9110542881360392e-05 2.4004009333113297e-03 -9.5968595365570428e-03  -8.9560209299455127e-06 2.3655172804115418e-03 -9.8018630124934395e-03  3.8263382327244831e-05 2.2878069701402714e-03 -9.9608062576459731e-03  7.3655873598985454e-05 2.1307684626277381e-03 -9.2815319770316821e-03  -2.7635008636040839e-05 2.0736469572281472e-03 -9.1504342805087922e-03  -8.4538437298676080e-05 2.1598125559321719e-03 -9.9681307070492303e-03  -2.6165990502058436e-05 2.2402278177466365e-03 -1.0583956712804050e-02  6.3021762477511486e-05 2.2963725318888096e-03 -1.1014015010107046e-02  7.3290255948945445e-04 2.8152702908891495e-03 -1.1491629990239637e-02  0.0000000000000000e+00 0.0000000000000000e+00 0.0000000000000000e+00  -6.7783887172653430e-06 1.1062899483809699e-06 -2.1013974024033758e-05  -1.3199112807728950e-05 3.6345084063235415e-06 -7.9829586786734421e-05  -1.8792997610792480e-05 7.4685503955715191e-06 -1.7241256409408732e-04  -2.3647609822715097e-05 1.2437996329704970e-05 -2.9438110610553487e-04  -2.7832383262478256e-05 1.8388038983960036e-05 -4.4173787356063842e-04  -3.1410301641141934e-05 2.5179484114773040e-05 -6.1089615262649606e-04  -3.4431470895947421e-05 3.2686388734801603e-05 -7.9857094580738615e-04  -3.6943198937561230e-05 4.0793343077877807e-05 -1.0017270042119719e-03  -3.8995540506562944e-05 4.9394843483255364e-05 -1.2176162058322268e-03  -4.0638086016975917e-05 5.8396411933781792e-05 -1.4437812548718639e-03  -4.1918572277552590e-05 6.7714398151944502e-05 -1.6780401966389354e-03  -4.2884110277999133e-05 7.7275617634244877e-05 -1.9184782912950104e-03  -4.3582310125489129e-05 8.7017512517095506e-05 -2.1634528309168056e-03  -4.4058318297631664e-05 9.6888061847533996e-05 -2.4115976523410051e-03  -4.4353109651655032e-05 1.0684450056244614e-04 -2.6617824110529800e-03  -4.4508311235614119e-05 1.1685198076238849e-04 -2.9130982996630065e-03  -4.4568632449245926e-05 1.2688485046422109e-04 -3.1648876765822715e-03  -4.4579984144923718e-05 1.3692836021163908e-04 -3.4167584589767249e-03  0.0000000000000000e+00 0.0000000000000000e+00 0.0000000000000000e+00  -6.8615321312522439e-06 1.6675434124082951e-06 -2.0667484133245114e-05  -1.3733024019756320e-05 4.0845826301457554e-06 -7.9446163204276656e-05  -1.9677265713711794e-05 7.8575467329959154e-06 -1.7199336658073363e-04  -2.4837769766420208e-05 1.2773414156495663e-05 -2.9392819324092071e-04  -2.9287233660585925e-05 1.8675629994231655e-05 -4.4125550789183757e-04  -3.3093184429307841e-05 2.5423526953710627e-05 -6.1038885238712183e-04  -3.6309235459545180e-05 3.2890332827300990e-05 -7.9804236352603555e-04  -3.8985006056302724e-05 4.0960869428388178e-05 -1.0011800848893197e-03  -4.1173179346178791e-05 4.9529792344964935e-05 -1.2170536834519045e-03  -4.2926291225981436e-05 5.8502477219462633e-05 -1.4432055464678887e-03  -4.4294896722269633e-05 6.7795158348540969e-05 -1.6774533576207301e-03  -4.5328763672142224e-05 7.7334688939244753e-05 -1.9178820819884196e-03  -4.6078186419653953e-05 8.7058487210858293e-05 -2.1628487252891068e-03  -4.6591214511150808e-05 9.6914132054583388e-05 -2.4109868342131451e-03  -4.6911174239815595e-05 1.0685867839794722e-04 -2.6611658667000785e-03  -4.7081627878108032e-05 1.1685755643182038e-04 -2.9124769498462067e-03  -4.7149667948195227e-05 1.2688524261092045e-04 -3.1642623338843387e-03  -4.7163962192872194e-05 1.3692638737335965e-04 -3.4161303556815587e-03  0.0000000000000000e+00 0.0000000000000000e+00 0.0000000000000000e+00  -8.8063686091293335e-04 -1.0680600385195463e-03 -4.2370700902482194e-03  -9.2928911900014408e-04 -2.1224665390078535e-03 -8.9351200007357374e-03  -5.3317140844219102e-04 -2.9168601833814553e-03 -1.2118491767543250e-02  4.9292092233980194e-05 -3.1219441794697669e-03 -1.2300453065129035e-02  3.1848031731204979e-04 -2.8154827022707275e-03 -1.0101331105979305e-02  1.2647681852293266e-04 -2.5225040218351284e-03 -9.1484802471123814e-03  -4.7080478977480640e-05 -2.4767157680535409e-03 -9.8745288848620990e-03  -1.6530644974140644e-05 -2.4505197704310032e-03 -1.0002792030404070e-02  1.7715390656289519e-05 -2.3662069131880942e-03 -9.8307433660324191e-03  -6.2708512766174559e-06 -2.2785669681920249e-03 -9.8079571703342822e-03  -3.3611405499218534e-05 -2.2164815809383909e-03 -1.0000766882376895e-02  2.8579278468614685e-05 -2.1423594713054950e-03 -1.0107340723021770e-02  7.2024816354198840e-05 -1.9871936997581099e-03 -9.4317422849859462e-03  -2.4113150487788285e-05 -1.8770774892939372e-03 -9.2871924383577491e-03  -8.3515915651211363e-05 -1.8870858695008343e-03 -9.9973423685694226e-03  -3.4192873689148271e-05 -1.9295278001236621e-03 -1.0493805157871870e-02  5.9948958780228478e-05 -2.0331416942508066e-03 -1.0784743442561258e-02  5.2378677333561564e-04 -2.3870436888180219e-03 -1.0252416896510888e-02  0.0000000000000000e+00 0.0000000000000000e+00 0.0000000000000000e+00  -1.2729319516382141e-03 -1.6944545411627476e-03 -8.9677856520646200e-03  -1.4148915046655163e-03 -3.6210639457156199e-03 -1.9020460502915310e-02  -8.2159647501490074e-04 -5.1124021459456187e-03 -2.6033054848747871e-02  7.4156145232060237e-05 -5.5925088551147788e-03 -2.6923303882707913e-02  5.1899457152560446e-04 -5.1222587950945494e-03 -2.2659743001929626e-02  2.2863242173015477e-04 -4.5893353854477327e-03 -2.0246878756823319e-02  -6.1418682997244211e-05 -4.4782078328632147e-03 -2.1185688192908215e-02  -1.3803540422906224e-05 -4.4384060900279831e-03 -2.1259484154158490e-02  4.6359637288481563e-05 -4.3007732977154486e-03 -2.0665413126178644e-02  1.1575122621077146e-05 -4.1470896314225519e-03 -2.0290966053100500e-02  -3.3