<?xml version="1.0"?>
<VTKFile type="UnstructuredGrid"  version="0.1"  >
<UnstructuredGrid>
<Piece  NumberOfPoints="760" NumberOfCells="3024">
<Points>
<DataArray  type="Float64"  NumberOfComponents="3"  format="ascii">0 0 0  0.05555555555555555 0 0  0.1111111111111111 0 0  0.1666666666666667 0 0  0.2222222222222222 0 0  0.2777777777777778 0 0  0.3333333333333333 0 0  0.3888888888888889 0 0  0.4444444444444444 0 0  0.5 0 0  0.5555555555555556 0 0  0.6111111111111112 0 0  0.6666666666666666 0 0  0.7222222222222222 0 0  0.7777777777777778 0 0  0.8333333333333334 0 0  0.8888888888888888 0 0  0.9444444444444444 0 0  1 0 0  0 0.01428571428571429 0  0.05555555555555555 0.01428571428571429 0  0.1111111111111111 0.01428571428571429 0  0.1666666666666667 0.01428571428571429 0  0.2222222222222222 0.01428571428571429 0  0.2777777777777778 0.01428571428571429 0  0.3333333333333333 0.01428571428571429 0  0.3888888888888889 0.01428571428571429 0  0.4444444444444444 0.01428571428571429 0  0.5 0.01428571428571429 0  0.5555555555555556 0.01428571428571429 0  0.6111111111111112 0.01428571428571429 0  0.6666666666666666 0.01428571428571429 0  0.7222222222222222 0.01428571428571429 0  0.7777777777777778 0.01428571428571429 0  0.8333333333333334 0.01428571428571429 0  0.8888888888888888 0.01428571428571429 0  0.9444444444444444 0.01428571428571429 0  1 0.01428571428571429 0  0 0.02857142857142857 0  0.05555555555555555 0.02857142857142857 0  0.1111111111111111 0.02857142857142857 0  0.1666666666666667 0.02857142857142857 0  0.2222222222222222 0.02857142857142857 0  0.2777777777777778 0.02857142857142857 0  0.3333333333333333 0.02857142857142857 0  0.3888888888888889 0.02857142857142857 0  0.4444444444444444 0.02857142857142857 0  0.5 0.02857142857142857 0  0.5555555555555556 0.02857142857142857 0  0.6111111111111112 0.02857142857142857 0  0.6666666666666666 0.02857142857142857 0  0.7222222222222222 0.02857142857142857 0  0.7777777777777778 0.02857142857142857 0  0.8333333333333334 0.02857142857142857 0  0.8888888888888888 0.02857142857142857 0  0.9444444444444444 0.02857142857142857 0  1 0.02857142857142857 0  0 0.04285714285714286 0  0.05555555555555555 0.04285714285714286 0  0.1111111111111111 0.04285714285714286 0  0.1666666666666667 0.04285714285714286 0  0.2222222222222222 0.04285714285714286 0  0.2777777777777778 0.04285714285714286 0  0.3333333333333333 0.04285714285714286 0  0.3888888888888889 0.04285714285714286 0  0.4444444444444444 0.04285714285714286 0  0.5 0.04285714285714286 0  0.5555555555555556 0.04285714285714286 0  0.6111111111111112 0.04285714285714286 0  0.6666666666666666 0.04285714285714286 0  0.7222222222222222 0.04285714285714286 0  0.7777777777777778 0.04285714285714286 0  0.8333333333333334 0.04285714285714286 0  0.8888888888888888 0.04285714285714286 0  0.9444444444444444 0.04285714285714286 0  1 0.04285714285714286 0  0 0.05714285714285715 0  0.05555555555555555 0.05714285714285715 0  0.1111111111111111 0.05714285714285715 0  0.1666666666666667 0.05714285714285715 0  0.2222222222222222 0.05714285714285715 0  0.2777777777777778 0.05714285714285715 0  0.3333333333333333 0.05714285714285715 0  0.3888888888888889 0.05714285714285715 0  0.4444444444444444 0.05714285714285715 0  0.5 0.05714285714285715 0  0.5555555555555556 0.05714285714285715 0  0.6111111111111112 0.05714285714285715 0  0.6666666666666666 0.05714285714285715 0  0.7222222222222222 0.05714285714285715 0  0.7777777777777778 0.05714285714285715 0  0.8333333333333334 0.05714285714285715 0  0.8888888888888888 0.05714285714285715 0  0.9444444444444444 0.05714285714285715 0  1 0.05714285714285715 0  0 0.07142857142857142 0  0.05555555555555555 0.07142857142857142 0  0.1111111111111111 0.07142857142857142 0  0.1666666666666667 0.07142857142857142 0  0.2222222222222222 0.07142857142857142 0  0.2777777777777778 0.07142857142857142 0  0.3333333333333333 0.07142857142857142 0  0.3888888888888889 0.07142857142857142 0  0.4444444444444444 0.07142857142857142 0  0.5 0.07142857142857142 0  0.5555555555555556 0.07142857142857142 0  0.6111111111111112 0.07142857142857142 0  0.6666666666666666 0.07142857142857142 0  0.7222222222222222 0.07142857142857142 0  0.7777777777777778 0.07142857142857142 0  0.8333333333333334 0.07142857142857142 0  0.8888888888888888 0.07142857142857142 0  0.9444444444444444 0.07142857142857142 0  1 0.07142857142857142 0  0 0.08571428571428573 0  0.05555555555555555 0.08571428571428573 0  0.1111111111111111 0.08571428571428573 0  0.1666666666666667 0.08571428571428573 0  0.2222222222222222 0.08571428571428573 0  0.2777777777777778 0.08571428571428573 0  0.3333333333333333 0.08571428571428573 0  0.3888888888888889 0.08571428571428573 0  0.4444444444444444 0.08571428571428573 0  0.5 0.08571428571428573 0  0.5555555555555556 0.08571428571428573 0  0.6111111111111112 0.08571428571428573 0  0.6666666666666666 0.08571428571428573 0  0.7222222222222222 0.08571428571428573 0  0.7777777777777778 0.08571428571428573 0  0.8333333333333334 0.08571428571428573 0  0.8888888888888888 0.08571428571428573 0  0.9444444444444444 0.08571428571428573 0  1 0.08571428571428573 0  0 0.1 0  0.05555555555555555 0.1 0  0.1111111111111111 0.1 0  0.1666666666666667 0.1 0  0.2222222222222222 0.1 0  0.2777777777777778 0.1 0  0.3333333333333333 0.1 0  0.3888888888888889 0.1 0  0.4444444444444444 0.1 0  0.5 0.1 0  0.5555555555555556 0.1 0  0.6111111111111112 0.1 0  0.6666666666666666 0.1 0  0.7222222222222222 0.1 0  0.7777777777777778 0.1 0  0.8333333333333334 0.1 0  0.8888888888888888 0.1 0  0.9444444444444444 0.1 0  1 0.1 0  0 0 0.01  0.05555555555555555 0 0.01  0.1111111111111111 0 0.01  0.1666666666666667 0 0.01  0.2222222222222222 0 0.01  0.2777777777777778 0 0.01  0.3333333333333333 0 0.01  0.3888888888888889 0 0.01  0.4444444444444444 0 0.01  0.5 0 0.01  0.5555555555555556 0 0.01  0.6111111111111112 0 0.01  0.6666666666666666 0 0.01  0.7222222222222222 0 0.01  0.7777777777777778 0 0.01  0.8333333333333334 0 0.01  0.8888888888888888 0 0.01  0.9444444444444444 0 0.01  1 0 0.01  0 0.01428571428571429 0.01  0.05555555555555555 0.01428571428571429 0.01  0.1111111111111111 0.01428571428571429 0.01  0.1666666666666667 0.01428571428571429 0.01  0.2222222222222222 0.01428571428571429 0.01  0.2777777777777778 0.01428571428571429 0.01  0.3333333333333333 0.01428571428571429 0.01  0.3888888888888889 0.01428571428571429 0.01  0.4444444444444444 0.01428571428571429 0.01  0.5 0.01428571428571429 0.01  0.5555555555555556 0.01428571428571429 0.01  0.6111111111111112 0.01428571428571429 0.01  0.6666666666666666 0.01428571428571429 0.01  0.7222222222222222 0.01428571428571429 0.01  0.7777777777777778 0.01428571428571429 0.01  0.8333333333333334 0.01428571428571429 0.01  0.8888888888888888 0.01428571428571429 0.01  0.9444444444444444 0.01428571428571429 0.01  1 0.01428571428571429 0.01  0 0.02857142857142857 0.01  0.05555555555555555 0.02857142857142857 0.01  0.1111111111111111 0.02857142857142857 0.01  0.1666666666666667 0.02857142857142857 0.01  0.2222222222222222 0.02857142857142857 0.01  0.2777777777777778 0.02857142857142857 0.01  0.3333333333333333 0.02857142857142857 0.01  0.3888888888888889 0.02857142857142857 0.01  0.4444444444444444 0.02857142857142857 0.01  0.5 0.02857142857142857 0.01  0.5555555555555556 0.02857142857142857 0.01  0.6111111111111112 0.02857142857142857 0.01  0.6666666666666666 0.02857142857142857 0.01  0.7222222222222222 0.02857142857142857 0.01  0.7777777777777778 0.02857142857142857 0.01  0.8333333333333334 0.02857142857142857 0.01  0.8888888888888888 0.02857142857142857 0.01  0.9444444444444444 0.02857142857142857 0.01  1 0.02857142857142857 0.01  0 0.04285714285714286 0.01  0.05555555555555555 0.04285714285714286 0.01  0.1111111111111111 0.04285714285714286 0.01  0.1666666666666667 0.04285714285714286 0.01  0.2222222222222222 0.04285714285714286 0.01  0.2777777777777778 0.04285714285714286 0.01  0.3333333333333333 0.04285714285714286 0.01  0.3888888888888889 0.04285714285714286 0.01  0.4444444444444444 0.04285714285714286 0.01  0.5 0.04285714285714286 0.01  0.5555555555555556 0.04285714285714286 0.01  0.6111111111111112 0.04285714285714286 0.01  0.6666666666666666 0.04285714285714286 0.01  0.7222222222222222 0.04285714285714286 0.01  0.7777777777777778 0.04285714285714286 0.01  0.8333333333333334 0.04285714285714286 0.01  0.8888888888888888 0.04285714285714286 0.01  0.9444444444444444 0.04285714285714286 0.01  1 0.04285714285714286 0.01  0 0.05714285714285715 0.01  0.05555555555555555 0.05714285714285715 0.01  0.1111111111111111 0.05714285714285715 0.01  0.1666666666666667 0.05714285714285715 0.01  0.2222222222222222 0.05714285714285715 0.01  0.2777777777777778 0.05714285714285715 0.01  0.3333333333333333 0.05714285714285715 0.01  0.3888888888888889 0.05714285714285715 0.01  0.4444444444444444 0.05714285714285715 0.01  0.5 0.05714285714285715 0.01  0.5555555555555556 0.05714285714285715 0.01  0.6111111111111112 0.05714285714285715 0.01  0.6666666666666666 0.05714285714285715 0.01  0.7222222222222222 0.05714285714285715 0.01  0.7777777777777778 0.05714285714285715 0.01  0.8333333333333334 0.05714285714285715 0.01  0.8888888888888888 0.05714285714285715 0.01  0.9444444444444444 0.05714285714285715 0.01  1 0.05714285714285715 0.01  0 0.07142857142857142 0.01  0.05555555555555555 0.07142857142857142 0.01  0.1111111111111111 0.07142857142857142 0.01  0.1666666666666667 0.07142857142857142 0.01  0.2222222222222222 0.07142857142857142 0.01  0.2777777777777778 0.07142857142857142 0.01  0.3333333333333333 0.07142857142857142 0.01  0.3888888888888889 0.07142857142857142 0.01  0.4444444444444444 0.07142857142857142 0.01  0.5 0.07142857142857142 0.01  0.5555555555555556 0.07142857142857142 0.01  0.6111111111111112 0.07142857142857142 0.01  0.6666666666666666 0.07142857142857142 0.01  0.7222222222222222 0.07142857142857142 0.01  0.7777777777777778 0.07142857142857142 0.01  0.8333333333333334 0.07142857142857142 0.01  0.8888888888888888 0.07142857142857142 0.01  
[...]
<PointData  Vectors="f_36"> 
<DataArray  type="Float64"  Name="f_36"  NumberOfComponents="3" format="ascii">0.0000000000000000e+00 0.0000000000000000e+00 0.0000000000000000e+00  -1.4324885777810352e-03 2.8018853023334860e-03 -6.3786451791934132e-03  -1.7900067488249953e-03 5.5720621266080739e-03 -1.4161111102873106e-02  -1.7194270391810587e-03 8.1672814232848796e-03 -2.1960419974373771e-02  -1.2339884260139588e-03 1.0151950707822363e-02 -2.8659589552153177e-02  -2.9206743752014909e-04 1.0893916063087469e-02 -3.2057363456975074e-02  6.4520446989989495e-04 1.0167830546455125e-02 -3.0545158083796785e-02  1.0507841837257205e-03 8.6008564068637498e-03 -2.5844776188057018e-02  8.5530717827319159e-04 7.1201045289857852e-03 -2.1038927367125582e-02  3.6043839430191797e-04 6.3090505084851646e-03 -1.8371020251637796e-02  1.2793574160782065e-04 6.0518968367344597e-03 -1.8088507641258394e-02  3.3748170811678585e-04 5.7134210505460550e-03 -1.7671011990190850e-02  4.4190245258147846e-04 5.1250251709942067e-03 -1.5806996399157051e-02  2.2864949819659467e-04 4.7177784347796634e-03 -1.4508888287954014e-02  1.2667030715250070e-04 4.5419741605617191e-03 -1.4372743296138243e-02  2.0394482096284988e-04 4.3029138554896863e-03 -1.3875720117148563e-02  2.2420215500160826e-04 4.0298374523762715e-03 -1.3107356715016684e-02  2.8599818883183383e-04 3.8865487109858415e-03 -1.2780627714946197e-02  4.7321549136026750e-04 4.0555123358355536e-03 -1.2479026676489844e-02  0.0000000000000000e+00 0.0000000000000000e+00 0.0000000000000000e+00  -1.3737639395947276e-03 2.3654485421012424e-03 -3.8966743828424645e-03  -1.7186463384809350e-03 4.8861586809226297e-03 -9.1766774787462296e-03  -1.6597656774642166e-03 7.3124646017412856e-03 -1.4603888241043058e-02  -1.2325039221568511e-03 9.2339245869890643e-03 -1.9449099483991823e-02  -3.6591363069562354e-04 1.0053095829593135e-02 -2.2122794751025108e-02  5.5928594464595897e-04 9.4967801383279479e-03 -2.1258448464286955e-02  1.0017979903976437e-03 8.0861754531873012e-03 -1.7992581753661294e-02  8.5350030480116476e-04 6.6824533928709412e-03 -1.4564128533545440e-02  3.8553685246111414e-04 5.8744256075373095e-03 -1.2657452580668865e-02  1.1083387250531057e-04 5.6156539200777717e-03 -1.2596182757668970e-02  2.7698540207812193e-04 5.3245946494291582e-03 -1.2493173643702386e-02  4.1777135702356381e-04 4.7883901897265001e-03 -1.1200829663217079e-02  2.3266466283308995e-04 4.3924539310637592e-03 -1.0278180279640572e-02  1.0379219432821534e-04 4.2234126627257521e-03 -1.0297339224684551e-02  1.7591760943004708e-04 4.0096272737910792e-03 -1.0037186318348140e-02  1.9898699922157366e-04 3.7551457099584589e-03 -9.5268725089897258e-03  2.0343736121923006e-04 3.6189205483594549e-03 -9.3735202000854063e-03  4.7256094766497955e-04 3.8796392215367011e-03 -9.3473212988015048e-03  0.0000000000000000e+00 0.0000000000000000e+00 0.0000000000000000e+00  -8.3774260676520919e-04 1.4194906120896672e-03 -1.6239719412816226e-03  -1.0690195649168473e-03 3.0642656806930098e-03 -4.0986926398316123e-03  -1.0410884137673165e-03 4.7156408877366170e-03 -6.7054920047355015e-03  -7.9206153060872595e-04 6.0847252529507515e-03 -9.1240194436543482e-03  -2.7060522926114375e-04 6.7466677824365717e-03 -1.0580850814776279e-02  3.1014181793609244e-04 6.4512604483943333e-03 -1.0305403198671808e-02  6.0290184331962483e-04 5.5122017290833722e-03 -8.8002179670289525e-03  5.2381936440604681e-04 4.5280230031854969e-03 -7.1731320844770942e-03  2.3600808172615146e-04 3.9441699346441442e-03 -6.2804551162870086e-03  4.7541555692750195e-05 3.7768104529151149e-03 -6.3567294921025265e-03  1.3564347883879987e-04 3.6134609689229091e-03 -6.4526552243450979e-03  2.3629632653990022e-04 3.2539351726089735e-03 -5.8968029682348461e-03  1.3062667051672540e-04 2.9726956713774285e-03 -5.4964867767723913e-03  3.9595464584033756e-05 2.8667086933170352e-03 -5.6120382818841442e-03  8.1926778688002751e-05 2.7351076312974224e-03 -5.5862062796707300e-03  9.8266482874379436e-05 2.5657157649423665e-03 -5.4082541410461794e-03  6.4368095760976654e-05 2.4645271741971994e-03 -5.4215749315838961e-03  4.6903227740234635e-04 2.8450885767075380e-03 -5.6004151072251273e-03  0.0000000000000000e+00 0.0000000000000000e+00 0.0000000000000000e+00  -8.5743376338157078e-06 7.3028786869741162e-07 -1.2980013087431529e-05  -1.6103228651953072e-05 2.3077226214961827e-06 -4.7995508075030029e-05  -2.2612808989608796e-05 4.7090621993392970e-06 -1.0278708267747754e-04  -2.8134564185127028e-05 7.8177899034960498e-06 -1.7446810094061220e-04  -3.2754954020532189e-05 1.1539667269950797e-05 -2.6035267186842016e-04  -3.6582587908233560e-05 1.5786719623739983e-05 -3.5804204933067451e-04  -3.9729413536454875e-05 2.0479634477577161e-05 -4.6546878820923629e-04  -4.2292791921386419e-05 2.5548117315251091e-05 -5.8087356289639582e-04  -4.4349315655263014e-05 3.0929781607891021e-05 -7.0274041792114321e-04  -4.5961181383993121e-05 3.6568303920799395e-05 -8.2973711992950522e-04  -4.7188039851617601e-05 4.2412006537095477e-05 -9.6069003956337096e-04  -4.8091657422432734e-05 4.8414042029242067e-05 -1.0945978653631224e-03  -4.8729246422642105e-05 5.4533657892302045e-05 -1.2306364281842060e-03  -4.9150117077526393e-05 6.0736387363713902e-05 -1.3681286914611860e-03  -4.9401056994985876e-05 6.6993310573782485e-05 -1.5065261325816377e-03  -4.9528428083210370e-05 7.3281271276137017e-05 -1.6454142330704536e-03  -4.9575730633682759e-05 7.9583497272027849e-05 -1.7845074524866892e-03  -4.9584255008101717e-05 8.5890368887084120e-05 -1.9236383838620234e-03  0.0000000000000000e+00 0.0000000000000000e+00 0.0000000000000000e+00  -8.1046830704119285e-06 1.1838091295305357e-06 -1.2844999765711642e-05  -1.5953293826856100e-05 2.7033500548195795e-06 -4.7799509527428856e-05  -2.2757445062404552e-05 5.0465067493681846e-06 -1.0256436299514245e-04  -2.8539667248621104e-05 8.0995636129759243e-06 -1.7422025670906180e-04  -3.3386910394711212e-05 1.1772237485939788e-05 -2.6008115382561279e-04  -3.7408593971774440e-05 1.5977510009560398e-05 -3.5774881688677352e-04  -4.0719887388241428e-05 2.0635296903199554e-05 -4.6515660773425457e-04  -4.3422547013073101e-05 2.5673588423511949e-05 -5.8054547064377245e-04  -4.5596888148120005e-05 3.1028560961264651e-05 -7.0239891118429871e-04  -4.7307221097958829e-05 3.6643482899668144e-05 -8.2938373041460689e-04  -4.8613986409462531e-05 4.2467151182541717e-05 -9.6032567590490056e-04  -4.9580334325240062e-05 4.8452841907205392e-05 -1.0942235528617309e-03  -5.0266106529944679e-05 5.4559135821727031e-05 -1.2302534604913301e-03  -5.0722716920530821e-05 6.0751185532987047e-05 -1.3677383131131240e-03  -5.0998239802321204e-05 6.7000205090132311e-05 -1.5061296144357052e-03  -5.1140774463286323e-05 7.3282938263076548e-05 -1.6450129971484534e-03  -5.1195856202755051e-05 7.9582326662743647e-05 -1.7841028228237289e-03  -5.1206694936517962e-05 8.5888151705124972e-05 -1.9232312226286766e-03  0.0000000000000000e+00 0.0000000000000000e+00 0.0000000000000000e+00  -9.3677136139696919e-04 -1.5943842031288140e-03 -2.4295532154585751e-03  -1.0911477418816097e-03 -3.3879318245106701e-03 -5.3161308678545873e-03  -1.0187009703610541e-03 -5.1934364969706340e-03 -8.1372110379936569e-03  -7.2391055071877909e-04 -6.6930427898364191e-03 -1.0545620063371139e-02  -1.7206516794688817e-04 -7.4650565303660951e-03 -1.1744121296526929e-02  3.8050488446788450e-04 -7.2131686088409185e-03 -1.1092333552791064e-02  5.9935273205479682e-04 -6.2178004632061990e-03 -9.3033933310839520e-03  4.4487383051253557e-04 -5.1387587509630689e-03 -7.6638812110169097e-03  1.4026628612267246e-04 -4.4766134692336944e-03 -6.9726198983697703e-03  2.1535850981636133e-05 -4.2576674422318021e-03 -7.1486022082287324e-03  1.6428980093535089e-04 -4.0466914832275498e-03 -7.0711134365602545e-03  2.4052842660871461e-04 -3.5903405860515623e-03 -6.3151392448671413e-03  1.3235183666373255e-04 -3.1632888018430405e-03 -5.8295048883386649e-03  7.2827049546090022e-05 -2.9229704280419985e-03 -5.7981800952130839e-03  9.9819217462302886e-05 -2.6953573904808311e-03 -5.6073975655870079e-03  8.6796418495894664e-05 -2.4539513991767227e-03 -5.3530888111377288e-03  7.1420355785152076e-05 -2.3494526327606981e-03 -5.3278063648967856e-03  2.6473536495745043e-04 -2.6210184481794139e-03 -5.2858728618910564e-03  0.0000000000000000e+00 0.0000000000000000e+00 0.0000000000000000e+00  -1.4767904325176816e-03 -2.0654039626820798e-03 -4.7920850776156316e-03  -1.7492661367309933e-03 -4.5692263745526224e-03 -1.0473247938998476e-02  -1.6307231141329105e-03 -7.1102231077809237e-03 -1.6037767817415286e-02  -1.1711172471025196e-03 -9.2611110616409153e-03 -2.0759105742503160e-02  -2.9648221700941785e-04 -1.0445331202858845e-02 -2.3139841844527768e-02  6.1215694927007984e-04 -1.0224500235427857e-02 -2.1942773881859747e-02  9.9433911318521501e-04 -8.9179293415541320e-03 -1.8435210141216095e-02  7.6182301430753249e-04 -7.4075863973838540e-03 -1.5076326661962583e-02  2.6810295826448701e-04 -6.4165579155209991e-03 -1.3455668769691290e-02  5.1169415302616316e-05 -6.0474848585274875e-03 -1.3510555226202833e-02  2.7650586033084977e-04 -5.7485518231502348e-03 -1.3207862377302770e-02  4.2785248220175167e-04 -5.1318766097757668e-03 -1.1643232385296168e-02  2.5718745183280520e-04 -4.5205822566232656e-03 -1.0495455879153289e-02  1.4351634499937095e-04 -4.1584855724762218e-03 -1.0213374980304800e-02  1.8959514796874327e-04 -3.8367676080553904e-03 -9.6963821085582040e-03  1.8158919295818387e-04 -3.4993254846606568e-03 -9.0560151824687855e-03  1.5592720281229518e-04 -3.3565436594609525e-03 -8.8445845700222386e-03  2.5978330268637838e-04 -3.7734343967598684e-03 -8.6865615763031187e-03  0.0000000000000000e+00 0.0000000000000000e+00 0.0000000000000000e+00  -1.4829275932886647e-03 -2.0114206655572333e-03 -6.6298496735521517e-03  -1.8032433066087032e-03 -4.6747474656699288e-03 -1.4527575314894030e-02  -1.6987844710227072e-03 -7.3940568319943679e-03 -2.2324089564506915e-02  -1.2716214795437056e-03 -9.7375792788499827e-03 -2.8928631207385726e-02  -4.0569366286649498e-04 -1.1095320120055398e-02 -3.2356306021367798e-02  5.7216150143741889e-04 -1.0969689274486129e-02 -3.0955094940509235e-02  1.0351632966199428e-03 -9.6460493911116156e-03 -2.6277020624611309e-02  8.3094738793712899e-04 -8.0371282270948561e-03 -2.1585563702861701e-02  3.0882153152228932e-04 -6.9352097892767103e-03 -1.9098446484732735e-02  2.4845966247451354e-05 -6.5020874853347777e-03 -1.8857274449425317e-02  2.4372464638001601e-04 -6.1821686544101711e-03 -1.8325410458468628e-02  4.5827650188163302e-04 -5.5359354216118943e-03 -1.6205285048319411e-02  2.9073496595829020e-04 -4.8753587426055272e-03 -1.4505085198506055e-02  1.3689892765674546e-04 -4.4747579174053611e-03 -1.3926865381519382e-02  1.9149367516408880e-04 -4.1291030511529901e-03 -1.3142356269339080e-02  2.0929744997953177e-04 -3.7700920285110009e-03 -1.2209364001518834e-02  2.1782465377684959e-04 -3.6061675855350241e-03 -1.1852976503390332e-02  2.8633364281493610e-04 -4.0771131666759910e-03 -1.1799831308023007e-02  0.0000000000000000e+00 0.0000000000000000e+00 0.0000000000000000e+00  -5.7310807068641930e-04 1.0859964089606372e-03 -6.1414869275314620e-03  -7.8129974876861184e-04 2.3013525640131361e-03 -1.3883074396155907e-02  -7.6551085469684645e-04 3.4450623653257159e-03 -2.1637969342728536e-02  -5.7540570957239278e-04 4.3491964678356032e-03 -2.8332051901450408e-02  -1.8690393067347569e-04 4.7306463336572570e-03 -3.1781240750370060e-02  2.2655397957722887e-04 4.4535737894170965e-03 -3.0337185202700730e-02  4.3316501368659846e-04 3.7732970981588948e-03 -2.5676670332756741e-02  3.8517033571176091e-04 3.1092360648049852e-03 -2.0875019892511552e-02  1.9310536404117281e-04 2.7401748950966862e-03 -1.8193537936781280e-02  8.8252053918273243e-05 2.6384466404508005e-03 -1.7918783406894616e-02  1.7910975991417924e-04 2.5146695112193179e-03 -1.7535659914646892e-02  2.4541517605607653e-04 2.2610223524171555e-03 -1.5684758205143826e-02  1.5448960420562778e-04 2.0759323504740651e-03 -1.4376138976022306e-02  8.9529153334539282e-05 2.0087448661643623e-03 -1.4247455750193351e-02  1.2480799824608231e-04 1.9161657694992168e-03 -1.3767483430035950e-02  1.6218130842577026e-04 1.7974788422158931e-03 -1.3002132345959644e-02  2.4467086005683093e-04 1.7668961803934957e-03 -1.2672741745218962e-02  4.0967600605839092e-04 1.9817226087983581e-03 -1.2371136049245862e-02  0.0000000000000000e+00 0.0000000000000000e+00 0.0000000000000000e+00  -6.2180085160442667e-04 9.5524950433675739e-04 -3.7271060204571455e-03  -8.2329899160248922e-04 2.0133443287492937e-03 -8.9635269187225957e-03  -8.0123342750014438e-04 3.0375052024423162e-03 -1.4341797684199726e-02  -6.0928028103141170e-04 3.8580660209060094e-03 -1.9166098401681837e-02  -2.1323455527885477e-04 4.2246785657973802e-03 -2.1865281672174490e-02  2.2633908427200489e-04 4.0098666215066178e-03 -2.1043256787696668e-02  4.5611166218039866e-04 3.4228360556128818e-03 -1.7802952617281258e-02  4.1266409111392969e-04 2.8296147877306353e-03 -1.4380512411336206e-02  2.1092722076018305e-04 2.4850825907249807e-03 -1.2470463892372673e-02  8.2303832905005682e-05 2.3788751310590607e-03 -1.2423105571550654e-02  1.5953332689562039e-04 2.2676034669525335e-03 -1.2354437428180015e-02  2.3952482789980982e-04 2.0485588176481976e-03 -1.1074981801074073e-02  1.5588966558601310e-04 1.8814668091965564e-03 -1.0143368356234427e-02  7.9983777130320744e-05 1.8146740094742619e-03 -1.0171441221779551e-02  1.1291454753739342e-04 1.7315026735737532e-03 -9.9290914337871114e-03  1.4368221814277645e-04 1.6244561530341360e-03 -9.4222634375332008e-03  1.7697744513488336e-04 1.5844115639292188e-03 -9.2708896134356868e-03  3.8373953879607044e-04 1.8142524644384551e-03 -9.2729759811825910e-03  0.0000000000000000e+00 0.0000000000000000e+00 0.0000000000000000e+00  -4.1146209158539354e-04 5.7874516985950556e-04 -1.4210619496437410e-03  -5.4398266367080043e-04 1.2256905440844856e-03 -3.7503156433111749e-03  -5.3071775537750045e-04 1.8721132537019949e-03 -6.2115840619973118e-03  -4.0888159921196313e-04 2.4013850848997888e-03 -8.5248612966677215e-03  -1.5442992699687174e-04 2.6539414221176034e-03 -9.9511117459091612e-03  1.3619302041513879e-04 2.5410776244546409e-03 -9.7118606044572491e-03  2.9292513990760864e-04 2.1836752129358256e-03 -8.2723092280833910e-03  2.6717871177062797e-04 1.8093416870507164e-03 -6.7084583201650425e-03  1.3440516637110465e-04 1.5850353269501630e-03 -5.8580722950774423e-03  4.2288444624482481e-05 1.5145524262562982e-03 -5.9676309084533983e-03  8.4502710887573767e-05 1.4485148322444488e-03 -6.1048984530792227e-03  1.4080398757228618e-04 1.3154172108192125e-03 -5.5802145824736934e-03  9.1768461821471574e-05 1.2108063437224826e-03 -5.1929503724327149e-03  3.8688209598388090e-05 1.1688974691125998e-03 -5.3269015532166290e-03  5.7694026059068478e-05 1.1191582484609472e-03 -5.3249740044960152e-03  7.5414642714105522e-05 1.0549816392880760e-03 -5.1615344683767043e-03  7.0023395104977941e-05 1.0201696617051579e-03 -5.1835108923385699e-03  3.2970321534759255e-04 1.2250708008928596e-03 -5.3735251810904019e-03  0.0000000000000000e+00 0.0000000000000000e+00 0.0000000000000000e+00  -4.0374608346053549e-06 6.7545029254540550e-07 -1.2625334710187469e-05  -7.8219075041911319e-06 2.2336021345748169e-06 -4.7680314972711342e-05  -1.1066765731020035e-05 4.6050407192433424e-06 -1.0251435748098030e-04  -1.3820118507746847e-05 7.6870163707755113e-06 -1.7423671676235862e-04  -1.6125030280889682e-05 1.1384284272695063e-05 -2.6015890896520153e-04  -1.8034618801693399e-05 1.5609570853749598e-05 -3.5788141893985747e-04  -1.9604371781105509e-05 2.0283892525186261e-05 -4.6533676308060674e-04  -2.0883245055327911e-05 2.5336699820626964e-05 -5.8076618731663554e-04  -2.1910014306170078e-05 3.0704888555074892e-05 -7.0265447226996211e-04  -2.2715915656181277e-05 3.6331393839270429e-05 -8.2966987891748990e-04  -2.3330358899015011e-05 4.2164301206229173e-05 -9.6063889590922928e-04  -2.3783773868772041e-05 4.8156920658342163e-05 -1.0945602207343675e-03  -2.4104721758587763e-05 5.4268489711400848e-05 -1.2306099030839944e-03  -2.4317773405528620e-05 6.0464424292988963e-05 -1.3681111822674669e-03  -2.4445922265997730e-05 6.6715909455611352e-05 -1.5065156287529216e-03  -2.4512007294737868e-05 7.2999876244461914e-05 -1.6454087653090478e-03  -2.4537514982097919e-05 7.9299446870823522e-05 -1.7845051352756781e-03  -2.4542351221470906e-05 8.5604494329067848e-05 -1.9236366716059677e-03  0.0000000000000000e+00 0.0000000000000000e+00 0.0000000000000000e+00  -4.0968511324375491e-06 1.0087668183080514e-06 -1.2416973037577667e-05  -8.1614105843153315e-06 2.4971436331243902e-06 -4.7449838197387481e-05  -1.1626357551460843e-05 4.8283959655270780e-06 -1.0226217604928640e-04  -1.4572951231313419e-05 7.8743529527063407e-06 -1.7396315092471287e-04  -1.7045171255547917e-05 1.1539655957537895e-05 -2.5986518292260915e-04  -1.9097805234584730e-05 1.5737431579022928e-05 -3.5756934705009154e-04  -2.0788721833456063e-05 2.0388402639112625e-05 -4.6500874244589040e-04  -2.2169507223342440e-05 2.5421165667193708e-05 -5.8042477729036181e-04  -2.3281190469263144e-05 3.0771792977718761e-05 -7.0230177179411712e-04  -2.4156651472344157e-05 3.6382862302573467e-05 -8.2930719111189806e-04  -2.4826515051811160e-05 4.2202576031182118e-05 -9.6026701625555896e-04  -2.5322608562901714e-05 4.8184305305768322e-05 -1.0941799987813701e-03  -2.5675309972328313e-05 5.4286984437787800e-05 -1.2302223685156473e-03  -2.5910897892662397e-05 6.0475774809496503e-05 -1.3677173799062875e-03  -2.6053801545307740e-05 6.6721866306920609e-05 -1.5061166995668019e-03  -2.6128421685315750e-05 7.3002151190331376e-05 -1.6450059780748949e-03  -2.6157979528120132e-05 7.9299582682223124e-05 -1.7840996916048462e-03  -2.6164227122653942e-05 8.5603649013416401e-05 -1.9232298139261555e-03  0.0000000000000000e+00 0.0000000000000000e+00 0.0000000000000000e+00  -4.6468083815990268e-04 -5.6713636886465777e-04 -2.1499654143241720e-03  -5.6352401403461996e-04 -1.1875825887239636e-03 -4.7167101394516653e-03  -5.3548048968026310e-04 -1.8261258018233170e-03 -7.1897274398328628e-03  -4.0074231898208233e-04 -2.3606790728427649e-03 -9.2977864578802083e-03  -1.3316606634456246e-04 -2.6407191099411527e-03 -1.0321426861745892e-02  1.5812786245036282e-04 -2.5592730629372031e-03 -9.6674979828152274e-03  2.9485883295227237e-04 -2.2104652567297351e-03 -8.0199715599691204e-03  2.3678854202803171e-04 -1.8238197154407210e-03 -6.5705503093540585e-03  8.6417665152849828e-05 -1.5775347769713436e-03 -6.0244034002970787e-03  1.1540584326162183e-05 -1.4874558114098624e-03 -6.2773090881427535e-03  7.7050758459991606e-05 -1.4060946914665796e-03 -6.2552207982139443e-03  1.3178298316270120e-04 -1.2418346438083543e-03 -5.5711539006472995e-03  8.3779886737420469e-05 -1.0857832344340170e-03 -5.1615277713351494e-03  4.2912706226534886e-05 -9.9374418928081841e-04 -5.1908596979055536e-03  5.6532384144234285e-05 -9.0590338392933093e-04 -5.0494729574367221e-03  6.1014439973145436e-05 -8.1208639089328167e-04 -4.8378673319957556e-03  5.3237078046664833e-05 -7.7707304913728179e-04 -4.8330133210198432e-03  2.0268116363119585e-04 -8.9548738638864963e-04 -4.6859722976542624e-03  0.0000000000000000e+00 0.0000000000000000e+00 0.0000000000000000e+00  -6.6485504402943505e-04 -9.0149677744377776e-04 -4.6187020838429722e-03  -8.3957050532713798e-04 -2.0200705770550735e-03 -1.0199604971039958e-02  -7.9505230988911576e-04 -3.1697655717981671e-03 -1.5618113111805096e-02  -5.9970556233155780e-04 -4.1553585971342765e-03 -2.0212537432337870e-02  -2.0477932495626530e-04 -4.7124234444402965e-03 -2.2522731365451763e-02  2.3766250691994781e-04 -4.6343160486380808e-03 -2.1314305302813384e-02  4.5102602657856269e-04 -4.0547635229426530e-03 -1.7839857093750300e-02  3.6627256845797059e-04 -3.3668005103651166e-03 -1.4540565063811888e-02  1.3767771856621871e-04 -2.9020440686700895e-03 -1.2980812659255670e-02  1.8879515682041309e-05 -2.7195389381441601e-03 -1.3089946087501315e-02  1.2074920424190132e-04 -2.57802