<?xml version="1.0"?>
<VTKFile type="UnstructuredGrid"  version="0.1"  >
<UnstructuredGrid>
<Piece  NumberOfPoints="760" NumberOfCells="3024">
<Points>
<DataArray  type="Float64"  NumberOfComponents="3"  format="ascii">0 0 0  0.05555555555555555 0 0  0.1111111111111111 0 0  0.1666666666666667 0 0  0.2222222222222222 0 0  0.2777777777777778 0 0  0.3333333333333333 0 0  0.3888888888888889 0 0  0.4444444444444444 0 0  0.5 0 0  0.5555555555555556 0 0  0.6111111111111112 0 0  0.6666666666666666 0 0  0.7222222222222222 0 0  0.7777777777777778 0 0  0.8333333333333334 0 0  0.8888888888888888 0 0  0.9444444444444444 0 0  1 0 0  0 0.01428571428571429 0  0.05555555555555555 0.01428571428571429 0  0.1111111111111111 0.01428571428571429 0  0.1666666666666667 0.01428571428571429 0  0.2222222222222222 0.01428571428571429 0  0.2777777777777778 0.01428571428571429 0  0.3333333333333333 0.01428571428571429 0  0.3888888888888889 0.01428571428571429 0  0.4444444444444444 0.01428571428571429 0  0.5 0.01428571428571429 0  0.5555555555555556 0.01428571428571429 0  0.6111111111111112 0.01428571428571429 0  0.6666666666666666 0.01428571428571429 0  0.7222222222222222 0.01428571428571429 0  0.7777777777777778 0.01428571428571429 0  0.8333333333333334 0.01428571428571429 0  0.8888888888888888 0.01428571428571429 0  0.9444444444444444 0.01428571428571429 0  1 0.01428571428571429 0  0 0.02857142857142857 0  0.05555555555555555 0.02857142857142857 0  0.1111111111111111 0.02857142857142857 0  0.1666666666666667 0.02857142857142857 0  0.2222222222222222 0.02857142857142857 0  0.2777777777777778 0.02857142857142857 0  0.3333333333333333 0.02857142857142857 0  0.3888888888888889 0.02857142857142857 0  0.4444444444444444 0.02857142857142857 0  0.5 0.02857142857142857 0  0.5555555555555556 0.02857142857142857 0  0.6111111111111112 0.02857142857142857 0  0.6666666666666666 0.02857142857142857 0  0.7222222222222222 0.02857142857142857 0  0.7777777777777778 0.02857142857142857 0  0.8333333333333334 0.02857142857142857 0  0.8888888888888888 0.02857142857142857 0  0.9444444444444444 0.02857142857142857 0  1 0.02857142857142857 0  0 0.04285714285714286 0  0.05555555555555555 0.04285714285714286 0  0.1111111111111111 0.04285714285714286 0  0.1666666666666667 0.04285714285714286 0  0.2222222222222222 0.04285714285714286 0  0.2777777777777778 0.04285714285714286 0  0.3333333333333333 0.04285714285714286 0  0.3888888888888889 0.04285714285714286 0  0.4444444444444444 0.04285714285714286 0  0.5 0.04285714285714286 0  0.5555555555555556 0.04285714285714286 0  0.6111111111111112 0.04285714285714286 0  0.6666666666666666 0.04285714285714286 0  0.7222222222222222 0.04285714285714286 0  0.7777777777777778 0.04285714285714286 0  0.8333333333333334 0.04285714285714286 0  0.8888888888888888 0.04285714285714286 0  0.9444444444444444 0.04285714285714286 0  1 0.04285714285714286 0  0 0.05714285714285715 0  0.05555555555555555 0.05714285714285715 0  0.1111111111111111 0.05714285714285715 0  0.1666666666666667 0.05714285714285715 0  0.2222222222222222 0.05714285714285715 0  0.2777777777777778 0.05714285714285715 0  0.3333333333333333 0.05714285714285715 0  0.3888888888888889 0.05714285714285715 0  0.4444444444444444 0.05714285714285715 0  0.5 0.05714285714285715 0  0.5555555555555556 0.05714285714285715 0  0.6111111111111112 0.05714285714285715 0  0.6666666666666666 0.05714285714285715 0  0.7222222222222222 0.05714285714285715 0  0.7777777777777778 0.05714285714285715 0  0.8333333333333334 0.05714285714285715 0  0.8888888888888888 0.05714285714285715 0  0.9444444444444444 0.05714285714285715 0  1 0.05714285714285715 0  0 0.07142857142857142 0  0.05555555555555555 0.07142857142857142 0  0.1111111111111111 0.07142857142857142 0  0.1666666666666667 0.07142857142857142 0  0.2222222222222222 0.07142857142857142 0  0.2777777777777778 0.07142857142857142 0  0.3333333333333333 0.07142857142857142 0  0.3888888888888889 0.07142857142857142 0  0.4444444444444444 0.07142857142857142 0  0.5 0.07142857142857142 0  0.5555555555555556 0.07142857142857142 0  0.6111111111111112 0.07142857142857142 0  0.6666666666666666 0.07142857142857142 0  0.7222222222222222 0.07142857142857142 0  0.7777777777777778 0.07142857142857142 0  0.8333333333333334 0.07142857142857142 0  0.8888888888888888 0.07142857142857142 0  0.9444444444444444 0.07142857142857142 0  1 0.07142857142857142 0  0 0.08571428571428573 0  0.05555555555555555 0.08571428571428573 0  0.1111111111111111 0.08571428571428573 0  0.1666666666666667 0.08571428571428573 0  0.2222222222222222 0.08571428571428573 0  0.2777777777777778 0.08571428571428573 0  0.3333333333333333 0.08571428571428573 0  0.3888888888888889 0.08571428571428573 0  0.4444444444444444 0.08571428571428573 0  0.5 0.08571428571428573 0  0.5555555555555556 0.08571428571428573 0  0.6111111111111112 0.08571428571428573 0  0.6666666666666666 0.08571428571428573 0  0.7222222222222222 0.08571428571428573 0  0.7777777777777778 0.08571428571428573 0  0.8333333333333334 0.08571428571428573 0  0.8888888888888888 0.08571428571428573 0  0.9444444444444444 0.08571428571428573 0  1 0.08571428571428573 0  0 0.1 0  0.05555555555555555 0.1 0  0.1111111111111111 0.1 0  0.1666666666666667 0.1 0  0.2222222222222222 0.1 0  0.2777777777777778 0.1 0  0.3333333333333333 0.1 0  0.3888888888888889 0.1 0  0.4444444444444444 0.1 0  0.5 0.1 0  0.5555555555555556 0.1 0  0.6111111111111112 0.1 0  0.6666666666666666 0.1 0  0.7222222222222222 0.1 0  0.7777777777777778 0.1 0  0.8333333333333334 0.1 0  0.8888888888888888 0.1 0  0.9444444444444444 0.1 0  1 0.1 0  0 0 0.01  0.05555555555555555 0 0.01  0.1111111111111111 0 0.01  0.1666666666666667 0 0.01  0.2222222222222222 0 0.01  0.2777777777777778 0 0.01  0.3333333333333333 0 0.01  0.3888888888888889 0 0.01  0.4444444444444444 0 0.01  0.5 0 0.01  0.5555555555555556 0 0.01  0.6111111111111112 0 0.01  0.6666666666666666 0 0.01  0.7222222222222222 0 0.01  0.7777777777777778 0 0.01  0.8333333333333334 0 0.01  0.8888888888888888 0 0.01  0.9444444444444444 0 0.01  1 0 0.01  0 0.01428571428571429 0.01  0.05555555555555555 0.01428571428571429 0.01  0.1111111111111111 0.01428571428571429 0.01  0.1666666666666667 0.01428571428571429 0.01  0.2222222222222222 0.01428571428571429 0.01  0.2777777777777778 0.01428571428571429 0.01  0.3333333333333333 0.01428571428571429 0.01  0.3888888888888889 0.01428571428571429 0.01  0.4444444444444444 0.01428571428571429 0.01  0.5 0.01428571428571429 0.01  0.5555555555555556 0.01428571428571429 0.01  0.6111111111111112 0.01428571428571429 0.01  0.6666666666666666 0.01428571428571429 0.01  0.7222222222222222 0.01428571428571429 0.01  0.7777777777777778 0.01428571428571429 0.01  0.8333333333333334 0.01428571428571429 0.01  0.8888888888888888 0.01428571428571429 0.01  0.9444444444444444 0.01428571428571429 0.01  1 0.01428571428571429 0.01  0 0.02857142857142857 0.01  0.05555555555555555 0.02857142857142857 0.01  0.1111111111111111 0.02857142857142857 0.01  0.1666666666666667 0.02857142857142857 0.01  0.2222222222222222 0.02857142857142857 0.01  0.2777777777777778 0.02857142857142857 0.01  0.3333333333333333 0.02857142857142857 0.01  0.3888888888888889 0.02857142857142857 0.01  0.4444444444444444 0.02857142857142857 0.01  0.5 0.02857142857142857 0.01  0.5555555555555556 0.02857142857142857 0.01  0.6111111111111112 0.02857142857142857 0.01  0.6666666666666666 0.02857142857142857 0.01  0.7222222222222222 0.02857142857142857 0.01  0.7777777777777778 0.02857142857142857 0.01  0.8333333333333334 0.02857142857142857 0.01  0.8888888888888888 0.02857142857142857 0.01  0.9444444444444444 0.02857142857142857 0.01  1 0.02857142857142857 0.01  0 0.04285714285714286 0.01  0.05555555555555555 0.04285714285714286 0.01  0.1111111111111111 0.04285714285714286 0.01  0.1666666666666667 0.04285714285714286 0.01  0.2222222222222222 0.04285714285714286 0.01  0.2777777777777778 0.04285714285714286 0.01  0.3333333333333333 0.04285714285714286 0.01  0.3888888888888889 0.04285714285714286 0.01  0.4444444444444444 0.04285714285714286 0.01  0.5 0.04285714285714286 0.01  0.5555555555555556 0.04285714285714286 0.01  0.6111111111111112 0.04285714285714286 0.01  0.6666666666666666 0.04285714285714286 0.01  0.7222222222222222 0.04285714285714286 0.01  0.7777777777777778 0.04285714285714286 0.01  0.8333333333333334 0.04285714285714286 0.01  0.8888888888888888 0.04285714285714286 0.01  0.9444444444444444 0.04285714285714286 0.01  1 0.04285714285714286 0.01  0 0.05714285714285715 0.01  0.05555555555555555 0.05714285714285715 0.01  0.1111111111111111 0.05714285714285715 0.01  0.1666666666666667 0.05714285714285715 0.01  0.2222222222222222 0.05714285714285715 0.01  0.2777777777777778 0.05714285714285715 0.01  0.3333333333333333 0.05714285714285715 0.01  0.3888888888888889 0.05714285714285715 0.01  0.4444444444444444 0.05714285714285715 0.01  0.5 0.05714285714285715 0.01  0.5555555555555556 0.05714285714285715 0.01  0.6111111111111112 0.05714285714285715 0.01  0.6666666666666666 0.05714285714285715 0.01  0.7222222222222222 0.05714285714285715 0.01  0.7777777777777778 0.05714285714285715 0.01  0.8333333333333334 0.05714285714285715 0.01  0.8888888888888888 0.05714285714285715 0.01  0.9444444444444444 0.05714285714285715 0.01  1 0.05714285714285715 0.01  0 0.07142857142857142 0.01  0.05555555555555555 0.07142857142857142 0.01  0.1111111111111111 0.07142857142857142 0.01  0.1666666666666667 0.07142857142857142 0.01  0.2222222222222222 0.07142857142857142 0.01  0.2777777777777778 0.07142857142857142 0.01  0.3333333333333333 0.07142857142857142 0.01  0.3888888888888889 0.07142857142857142 0.01  0.4444444444444444 0.07142857142857142 0.01  0.5 0.07142857142857142 0.01  0.5555555555555556 0.07142857142857142 0.01  0.6111111111111112 0.07142857142857142 0.01  0.6666666666666666 0.07142857142857142 0.01  0.7222222222222222 0.07142857142857142 0.01  0.7777777777777778 0.07142857142857142 0.01  0.8333333333333334 0.07142857142857142 0.01  0.8888888888888888 0.07142857142857142 0.01  
[...]
<PointData  Vectors="f_36"> 
<DataArray  type="Float64"  Name="f_36"  NumberOfComponents="3" format="ascii">0.0000000000000000e+00 0.0000000000000000e+00 0.0000000000000000e+00  3.4504447088991633e-03 -7.6347986364167439e-03 2.0239489413701305e-02  1.7318371145280751e-03 -1.1858412532198900e-02 3.5528446298960112e-02  -2.0629337075360175e-04 -1.2266065643300756e-02 3.6380263279417353e-02  -2.9701276381986519e-04 -1.1694700740709170e-02 3.3717725292988818e-02  -1.5340517105880639e-05 -1.1575061776088677e-02 3.3759046395423910e-02  -9.0987544378717665e-07 -1.1511623909467160e-02 3.3713970830804060e-02  8.0516224672261417e-07 -1.1400985191098226e-02 3.3566881841402149e-02  6.7279339950669158e-06 -1.1292090054904899e-02 3.3495592814281980e-02  5.6801156851136617e-06 -1.1181137157056414e-02 3.3399126499517651e-02  9.5517405854563624e-06 -1.1065141024415729e-02 3.3302955975184456e-02  -1.5525686854262083e-06 -1.0938858847693156e-02 3.3212701148087047e-02  7.1613136043051031e-06 -1.0816863456064441e-02 3.3064224511888028e-02  4.7077507681878101e-05 -1.0726078935882863e-02 3.3078805683902431e-02  -1.0052683458048750e-04 -1.0498854604409299e-02 3.2934718830630372e-02  1.2225917815036671e-04 -1.0285368401939476e-02 3.1620672426393916e-02  6.5248102075245000e-04 -1.0916478387954249e-02 3.3441353927019170e-02  6.9412418502472754e-05 -1.1896754624211716e-02 3.7662247690176349e-02  -9.6879607096039377e-04 -1.2764980704303331e-02 3.7898986065308997e-02  0.0000000000000000e+00 0.0000000000000000e+00 0.0000000000000000e+00  3.4661019465990484e-03 -6.6336399905077273e-03 1.3333696973990197e-02  1.9688181951852848e-03 -1.0764078454686077e-02 2.4690948881986304e-02  -1.2055516331786478e-04 -1.1363189213059101e-02 2.5249101573081162e-02  -3.4106204322823137e-04 -1.0848461533044421e-02 2.3074902409251540e-02  5.2008180764581961e-07 -1.0712110032445200e-02 2.3209495648730493e-02  1.7129506374817482e-05 -1.0653211291644048e-02 2.3287473558009763e-02  1.1830131618235530e-05 -1.0551552989954856e-02 2.3264410644400338e-02  2.1234947431357604e-05 -1.0451870975797351e-02 2.3320313467055820e-02  2.0838768062070094e-05 -1.0350090216167828e-02 2.3360686911284637e-02  2.4073591479406518e-05 -1.0243639947009577e-02 2.3405066445682597e-02  1.8121156374403187e-05 -1.0128337114400822e-02 2.3462512866268156e-02  2.2118841581173643e-05 -1.0015240566064615e-02 2.3473622006962454e-02  5.6430182583598130e-05 -9.9307175762892684e-03 2.3602213012224961e-02  -5.8966593616914654e-05 -9.7274381220334560e-03 2.3677208655630260e-02  7.9090244615021140e-05 -9.4941598098885471e-03 2.2655997427120017e-02  6.3029909609467060e-04 -1.0018365076917847e-02 2.3932732048545607e-02  3.5080866329172605e-04 -1.0967192233275224e-02 2.7396740999567074e-02  -9.9017754957994478e-04 -1.2143277903215229e-02 2.8164574613598111e-02  0.0000000000000000e+00 0.0000000000000000e+00 0.0000000000000000e+00  2.1603480306822166e-03 -4.2301947095515578e-03 5.9832895543474171e-03  1.3391067191306041e-03 -7.1822834076888846e-03 1.1821646679340648e-02  -2.3315737381988182e-05 -7.6893277927140265e-03 1.2174806116879627e-02  -2.1195967452236481e-04 -7.2996664918115010e-03 1.1044813478675674e-02  3.2573767856700567e-05 -7.1915438914353005e-03 1.1232430724133106e-02  5.1362312997437485e-05 -7.1586368910345234e-03 1.1411617186615240e-02  4.7278277560169290e-05 -7.0961035816563094e-03 1.1533370635274770e-02  5.7341666531485494e-05 -7.0367059889976805e-03 1.1716326991526568e-02  5.9747491466052624e-05 -6.9756893169333643e-03 1.1899850107440397e-02  6.3037767390008078e-05 -6.9118721364276542e-03 1.2091976846596230e-02  6.2749343855547367e-05 -6.8431884235009887e-03 1.2299047446750346e-02  6.5404415628469059e-05 -6.7738607503013363e-03 1.2487073255021278e-02  8.3489682118693140e-05 -6.7253450086803661e-03 1.2731873464045834e-02  2.1848723276264776e-05 -6.6000342879280402e-03 1.2985458930162451e-02  8.5273916697068455e-05 -6.4037436296556453e-03 1.2584197981921737e-02  4.3884201511059664e-04 -6.7343224527587255e-03 1.3308742446908169e-02  4.1682556457674382e-04 -7.4174119206100991e-03 1.5341069953690233e-02  -1.1783961803219847e-03 -8.8881158299461294e-03 1.6320794283718590e-02  0.0000000000000000e+00 0.0000000000000000e+00 0.0000000000000000e+00  1.7779391845074936e-05 -1.3776235174827097e-06 2.6608457041480132e-05  3.3638406290909613e-05 -4.3035316823474604e-06 9.9143780402541847e-05  4.7676600059778493e-05 -8.7829823001492584e-06 2.1367236480125264e-04  5.9972433279751996e-05 -1.4627786425245379e-05 3.6512833307801861e-04  7.0645030227081023e-05 -2.1694237179606490e-05 5.4880166371485079e-04  7.9808507500494393e-05 -2.9841669625452287e-05 7.6028964703525029e-04  8.7578436777664811e-05 -3.8932939037801801e-05 9.9551142126257357e-04  9.4070455253622708e-05 -4.8837155338174839e-05 1.2507104893007860e-03  9.9399965104014583e-05 -5.9430176324654007e-05 1.5224529501711491e-03  1.0368233648523838e-04 -7.0595135331361810e-05 1.8076282216738719e-03  1.0703280035040319e-04 -8.2223487514858929e-05 2.1034489563329676e-03  1.0956652964293797e-04 -9.4215975904947855e-05 2.4074509795177189e-03  1.1139844875689812e-04 -1.0648335462603393e-04 2.7174936078208415e-03  1.1264350139226944e-04 -1.1894744121534205e-04 3.0317584570019036e-03  1.1341745945454287e-04 -1.3154298246651570e-04 3.3487522748302562e-03  1.1383075819692407e-04 -1.4421756318418026e-04 3.6673113141742573e-03  1.1399069185093743e-04 -1.5693087718841300e-04 3.9865640618056281e-03  1.1402021627507989e-04 -1.6965927515836965e-04 4.3059481552543090e-03  0.0000000000000000e+00 0.0000000000000000e+00 0.0000000000000000e+00  1.6729295722965679e-05 -2.3254489812899363e-06 2.6330003948675947e-05  3.3178803656093293e-05 -5.1482821216624765e-06 9.8740322500398179e-05  4.7764357860248574e-05 -9.5278082472690588e-06 2.1321596197198256e-04  6.0552996922613287e-05 -1.5276183633768457e-05 3.6462600021778922e-04  7.1670720532064647e-05 -2.2252350267015147e-05 5.4825927731874473e-04  8.1232484687246458e-05 -3.0316071633309838e-05 7.5971183365294707e-04  8.9355092127702400e-05 -3.9330383482508252e-05 9.9490250076371346e-04  9.6155906886331456e-05 -4.9164369561901398e-05 1.2500744536914476e-03  1.0175213060282081e-04 -5.9693901812365404e-05 1.5217934695578791e-03  1.0626116687318918e-04 -7.0802115617687723e-05 1.8069486458145206e-03  1.0980052975558430e-04 -8.2380465494674457e-05 2.1027522968603257e-03  1.1248788641525409e-04 -9.4329698040293087e-05 2.4067398982271686e-03  1.1444093939929684e-04 -1.0656056114818251e-04 2.7167704190820454e-03  1.1577761550549403e-04 -1.1899495265455531e-04 3.0310251041197607e-03  1.1661694231514633e-04 -1.3156750664792194e-04 3.3480104018132929e-03  1.1707382307422727e-04 -1.4422507214818702e-04 3.6665622168400263e-03  1.1725848718784857e-04 -1.5692780634179651e-04 3.9858082871989395e-03  1.1729564511478038e-04 -1.6965235499234523e-04 4.3051851752108775e-03  0.0000000000000000e+00 0.0000000000000000e+00 0.0000000000000000e+00  2.2228401996584107e-03 4.5157369471924098e-03 7.8632759260882836e-03  1.0574288208568558e-03 7.8110746176263818e-03 1.3492154871035904e-02  -9.6557926066670428e-05 8.5444112820872459e-03 1.3236591201088315e-02  -1.3128599177897592e-04 8.1701571316255550e-03 1.2176974558118220e-02  3.5276806492838684e-05 8.0279050109027285e-03 1.2415340348449159e-02  4.3618965669103256e-05 7.9458200165335932e-03 1.2539085892892919e-02  4.6683100277677804e-05 7.8458561410147849e-03 1.2664150592306399e-02  5.3658515895165970e-05 7.7532486669800822e-03 1.2830733419050838e-02  5.5511035577932098e-05 7.6523520908846950e-03 1.2995037674262295e-02  5.9329499868237413e-05 7.5466065097165372e-03 1.3170413002135365e-02  5.6926547752933014e-05 7.4396579250681494e-03 1.3355795753247033e-02  6.2919078789071050e-05 7.3202725191692380e-03 1.3525021856950084e-02  8.1538260923554943e-05 7.1991364223166366e-03 1.3768823310209642e-02  -1.3123407388982267e-05 7.0681038851848083e-03 1.3954338862629902e-02  5.4394607121637599e-05 6.8571466916175902e-03 1.3500601126908714e-02  3.8135064862607757e-04 7.0186140369610560e-03 1.4142819223178695e-02  2.0990150781000639e-04 7.7827996377006579e-03 1.6035025292863492e-02  -7.1609496714527545e-04 9.1338872815283200e-03 1.6116010619000028e-02  0.0000000000000000e+00 0.0000000000000000e+00 0.0000000000000000e+00  3.5688092282729583e-03 5.8215890013230747e-03 1.4936879638178224e-02  1.8234760613014180e-03 1.0591209759361501e-02 2.6040144402012001e-02  -2.0252956220177291e-04 1.1895068415082552e-02 2.6090209207944023e-02  -3.0488114044796360e-04 1.1493522515835689e-02 2.3993186096550465e-02  2.0701060142351793e-05 1.1293927983119395e-02 2.4201554098415543e-02  2.5564481527328612e-05 1.1176273672291868e-02 2.4236221687978326e-02  1.7950055321474021e-05 1.1031188762631055e-02 2.4212349454449892e-02  2.5793181842515318e-05 1.0896413580108464e-02 2.4255994743028687e-02  2.5265399331967649e-05 1.0751278566008148e-02 2.4280172247584341e-02  2.7863512925067892e-05 1.0598491598302487e-02 2.4308702738849053e-02  2.3424723751735021e-05 1.0445049432765367e-02 2.4347000216140825e-02  2.7900912135040249e-05 1.0272263808336367e-02 2.4346000058636696e-02  5.7928808992925911e-05 1.0088196479634290e-02 2.4435209201550460e-02  -7.9327718173239893e-05 9.9169150716398938e-03 2.4493624838349055e-02  -1.4850796174371227e-05 9.6686012004291617e-03 2.3501177113135617e-02  5.0332648614330867e-04 9.8738720632962663e-03 2.4337218873980371e-02  2.9288288095950132e-04 1.0920744328415985e-02 2.7519311525021274e-02  -5.2783800432258915e-04 1.2928308918068050e-02 2.7751018223947162e-02  0.0000000000000000e+00 0.0000000000000000e+00 0.0000000000000000e+00  3.7862444590607927e-03 5.7246910889995964e-03 1.9992701822980633e-02  2.2043802804791800e-03 1.0994979477920023e-02 3.5414429892422272e-02  -2.0558747815781526e-04 1.2593923984181478e-02 3.6548818275764769e-02  -4.2385328153698873e-04 1.2260604631716798e-02 3.3961053138672613e-02  2.9490595134350215e-05 1.2057675928078460e-02 3.4041218746039929e-02  3.7198104411563629e-05 1.1933009512268755e-02 3.4011074528788959e-02  1.7766871500631910e-05 1.1776877644941119e-02 3.3859589131360897e-02  2.7875624182064501e-05 1.1630275822282198e-02 3.3792179533264390e-02  2.7172310286114067e-05 1.1473971978876020e-02 3.3697305621112672e-02  2.9002814844881593e-05 1.1308877268470569e-02 3.3599079937206282e-02  2.6534406648824081e-05 1.1143193217382769e-02 3.3508426926705852e-02  2.8176425637917164e-05 1.0957139642604441e-02 3.3368364591899131e-02  6.2029741982091448e-05 1.0757216311790142e-02 3.3297680444616617e-02  -6.0277334683623913e-05 1.0578617734084314e-02 3.3234404421641738e-02  -8.8076989618375909e-05 1.0316443993847201e-02 3.2017958099509324e-02  4.2914339321494302e-04 1.0520925354366280e-02 3.2986271118546240e-02  2.2971461091565346e-04 1.1604996907448876e-02 3.7025985630458599e-02  -5.8789379078143114e-04 1.3832770674240512e-02 3.8071192431994465e-02  0.0000000000000000e+00 0.0000000000000000e+00 0.0000000000000000e+00  1.3655528402648747e-03 -3.0653290360627204e-03 1.9676467497439155e-02  8.2241867200916522e-04 -5.0850368187171117e-03 3.5167078898822673e-02  -7.6609451539735084e-05 -5.2990552082330129e-03 3.6104418414267911e-02  -1.7191603281294123e-04 -5.0041490281781216e-03 3.3389757107287969e-02  -1.9684062611731839e-05 -4.9522165797638434e-03 3.3414963040237666e-02  2.8388361510930112e-06 -4.9550141652729114e-03 3.3385528032896662e-02  -5.9303102462429734e-08 -4.9201374356480235e-03 3.3241910973384400e-02  3.1914087302800792e-06 -4.8860793830182506e-03 3.3174514265154088e-02  2.5850866281097981e-06 -4.8551606599452563e-03 3.3082347016357538e-02  5.0770495635775216e-06 -4.8220470054613530e-03 3.2990418144433820e-02  -7.6665969014854088e-07 -4.7839780600318176e-03 3.2905369565368235e-02  -2.4062159772799653e-06 -4.7495638571408054e-03 3.2759017747367038e-02  3.3011644959185728e-05 -4.7333790968633769e-03 3.2777400511075389e-02  -7.9740921282640175e-06 -4.6471481837981948e-03 3.2653288417710716e-02  5.3837012004682357e-05 -4.5387234755815981e-03 3.1316467051515126e-02  2.3876683387381135e-04 -4.8310109014620883e-03 3.3080320994127721e-02  -1.3032959324151176e-04 -5.4240660307842345e-03 3.7320190632373504e-02  -9.0900579684560215e-04 -6.2699229597739069e-03 3.7591533305940665e-02  0.0000000000000000e+00 0.0000000000000000e+00 0.0000000000000000e+00  1.5342720627716897e-03 -2.6944181958787720e-03 1.2923131726516109e-02  9.8021335535445264e-04 -4.4711517280438002e-03 2.4416264623672027e-02  -4.1658010598185219e-05 -4.7455790564900641e-03 2.5012998467019442e-02  -1.9613507284127021e-04 -4.5168111025083724e-03 2.2763465193174424e-02  -1.3161533932112651e-05 -4.4620454404424191e-03 2.2878824295436702e-02  1.2764631094771977e-05 -4.4610066546928910e-03 2.2973637111824093e-02  5.2736430010248920e-06 -4.4309258450031573e-03 2.2951821515464450e-02  9.9466639127676875e-06 -4.4009345645158182e-03 2.3009495931673063e-02  1.0103649753137402e-05 -4.3737361597861917e-03 2.3052198408480794e-02  1.1859376934117893e-05 -4.3448298631157860e-03 2.3098389014913921e-02  8.7529680705755948e-06 -4.3113503828716331e-03 2.3158702330993944e-02  7.1592263250793887e-06 -4.2816313218827732e-03 2.3170439674415594e-02  3.4317728559570106e-05 -4.2678366409983105e-03 2.3298846558841291e-02  -1.2881155374244687e-06 -4.1946703055755815e-03 2.3389927201478831e-02  4.9478249009160327e-05 -4.0976655122452665e-03 2.2352066546716596e-02  2.7371913892961490e-04 -4.3306921627728383e-03 2.3577711627157053e-02  8.1592220794618727e-05 -4.8159744164865664e-03 2.7064454003434834e-02  -8.4618851780072254e-04 -5.7055153300200126e-03 2.7942936325025182e-02  0.0000000000000000e+00 0.0000000000000000e+00 0.0000000000000000e+00  1.0327885771076906e-03 -1.6607458768089375e-03 5.4883273488789495e-03  6.9573837413141075e-04 -2.7772455221666257e-03 1.1212430165616041e-02  -1.3169194695561868e-07 -2.9932621008959101e-03 1.1513524078342817e-02  -1.2719084306840619e-04 -2.8655906939521643e-03 1.0322642096965061e-02  6.6647073370166617e-06 -2.8295116641336546e-03 1.0500924399675022e-02  2.9681568153195825e-05 -2.8281410819143748e-03 1.0698363821560293e-02  2.3589420914449963e-05 -2.8124077145267349e-03 1.0826282745054979e-02  2.8517092000312941e-05 -2.7969422886000611e-03 1.1015978453326107e-02  3.0263972773970234e-05 -2.7830305110021505e-03 1.1207098792957455e-02  3.1792141995619984e-05 -2.7684448291475762e-03 1.1406589446068248e-02  3.1755467740960367e-05 -2.7511990697245111e-03 1.1622013775082075e-02  3.1772667645271249e-05 -2.7361213679680629e-03 1.1817157178464689e-02  4.5478438380488974e-05 -2.7310703270684192e-03 1.2067865729359058e-02  2.4233724767723325e-05 -2.6913545865158471e-03 1.2339280303535349e-02  5.3903761309955258e-05 -2.6294837025148854e-03 1.1935205564339175e-02  2.1207782040635168e-04 -2.7681303691357360e-03 1.2613758904967177e-02  1.7996758707571655e-04 -3.0425218890114589e-03 1.4629894452372678e-02  -8.2283565908399707e-04 -3.7876814427313162e-03 1.5642787611263590e-02  0.0000000000000000e+00 0.0000000000000000e+00 0.0000000000000000e+00  8.3888880330012328e-06 -1.2674585348970522e-06 2.5871551113605313e-05  1.6362836010697447e-05 -4.1566479486409786e-06 9.8477815199970651e-05  2.3358901018904143e-05 -8.5798855837306613e-06 2.1308217556469282e-04  2.9485261457589997e-05 -1.4377280031750456e-05 3.6461178926070745e-04  3.4804873450649984e-05 -2.1401076024225456e-05 5.4835384942792341e-04  3.9374799783941913e-05 -2.9510178958072221e-05 7.5990567363618412e-04  4.3252415578904614e-05 -3.8567267482880014e-05 9.9518633766730179e-04  4.6495172963872880e-05 -4.8441216459427320e-05 1.2504393499268647e-03  4.9160332621681971e-05 -5.9007659891004964e-05 1.5222308142801015e-03  5.1305088050708147e-05 -7.0149505525237565e-05 1.8074501483848412e-03  5.2986503367805551e-05 -8.1757970599352948e-05 2.1033100072278300e-03  5.4261560377988588e-05 -9.3733556210435449e-05 2.4073462168906130e-03  5.5187074780218712e-05 -1.0598675433207650e-04 2.7174181026083429e-03  5.5819678346644896e-05 -1.1843915551365874e-04 3.0317072727925219e-03  5.6216393796077532e-05 -1.3102532960884976e-04 3.3487204651053686e-03  5.6432087379752140e-05 -1.4369230488058365e-04 3.6672941038508500e-03  5.6519355291307617e-05 -1.5639948168756331e-04 3.9865565965987448e-03  5.6536509751916732e-05 -1.6912253644908541e-04 4.3059426551305836e-03  0.0000000000000000e+00 0.0000000000000000e+00 0.0000000000000000e+00  8.4484372663674723e-06 -1.9620727004381069e-06 2.5445336284847013e-05  1.6949533467334086e-05 -4.7173538354206775e-06 9.8006478646240762e-05  2.4361804551295834e-05 -9.0693922589854140e-06 2.1256790644145774e-04  3.0862508844213222e-05 -1.4803547398831347e-05 3.6405811180670029e-04  3.6516786520107670e-05 -2.1768806588422330e-05 5.4776552204043494e-04  4.1382849698829449e-05 -2.9823662629980212e-05 7.5928701949911097e-04  4.5519292273672294e-05 -3.8830830701485761e-05 9.9454141207907707e-04  4.8985231314253951e-05 -4.8659172417102537e-05 1.2497718751730974e-03  5.1839734871599001e-05 -5.9184324126770381e-05 1.5215441958823263e-03  5.4142008491690991e-05 -7.0289196621645239e-05 1.8067474655549028e-03  5.5951381349765365e-05 -8.1865006021537791e-05 2.1025939972677066e-03  5.7327316858285813e-05 -9.3812255750237871e-05 2.4066192629088011e-03  5.8329367456152166e-05 -1.0604143638918482e-04 2.7166822347243678e-03  5.9017226910276824e-05 -1.1847415673604391e-04 3.0309641599579940e-03  5.9451146467341955e-05 -1.3104494424608340e-04 3.3479714359411308e-03  5.9689541032578531e-05 -1.4370052189449599e-04 3.6665400716880577e-03  5.9788534794393175e-05 -1.5640033958102547e-04 3.9857980373970408e-03  5.9810094243065857e-05 -1.6911998590418191e-04 4.3051805775478225e-03  0.0000000000000000e+00 0.0000000000000000e+00 0.0000000000000000e+00  1.1316737458415031e-03 1.6295366582090743e-03 7.1121745503245444e-03  6.2649288237878005e-04 2.7654768762005221e-03 1.2163617517047249e-02  -2.4210817664465775e-05 3.0303584077585981e-03 1.1620691846969497e-02  -9.1264043809170090e-05 2.9132096797306792e-03 1.0521100826183623e-02  1.1996835243166168e-05 2.8636699401165667e-03 1.0793038854566499e-02  2.4461429612226760e-05 2.8195143004916597e-03 1.0942212616242420e-02  2.2416232776276221e-05 2.7742515583754788e-03 1.1084223715238140e-02  2.6566020532915015e-05 2.7333500565035937e-03 1.1268277341759506e-02  2.7272607134061303e-05 2.6874062103577215e-03 1.1450708628151989e-02  2.9338684814382447e-05 2.6394506899144348e-03 1.1644975585414309e-02  2.8065221369538436e-05 2.5918510958502674e-03 1.1850035187459432e-02  2.8333823726033599e-05 2.5383482150621471e-03 1.2039706065700689e-02  4.5443017331532001e-05 2.4788810178403256e-03 1.2305195682097082e-02  1.1619577195716615e-05 2.4241230866768773e-03 1.2520943126454881e-02  1.8296857964575340e-05 2.3505066703608363e-03 1.2090078844200445e-02  1.6444185182645113e-04 2.4018533724004735e-03 1.2697286423751317e-02  1.1485702359536214e-04 2.6979589104733611e-03 1.4471700815133954e-02  -5.4916325214591187e-04 3.2523140769692449e-03 1.4101757432147732e-02  0.0000000000000000e+00 0.0000000000000000e+00 0.0000000000000000e+00  1.6390654075119919e-03 2.6028458884597163e-03 1.4507055894317814e-02  9.7022370115815073e-04 4.7758498265372722e-03 2.5550009291451820e-02  -7.8992185899930939e-05 5.3882439469111034e-03 2.5454122052284610e-02  -1.8748663939237707e-04 5.2360648545417242e-03 2.3243950723426027e-02  3.8114602036243010e-06 5.1528408084633576e-03 2.3448638320389945e-02  2.4037122285060015e-05 5.0814474888119139e-03 2.3507883507460272e-02  1.2298050394698139e-05 5.0053844304224241e-03 2.3492618303068018e-02  1.6707285198929839e-05 4.9377789325258407e-03 2.3545975029074573e-02  1.6899618695835549e-05 4.8630196060375028e-03 2.3580692578051066e-02  1.8266984524015895e-05 4.7844847787591625e-03 2.3619750852944481e-02  1.6384948568723699e-05 4.7071240955173094e-03 2.3669379709872571e-02  1.5634446829955065e-05 4.6192450929044369e-03 2.3679629098329814e-02  4.0571147422877056e-05 4.5198807539459998e-03 2.3780668553931066e-02  -8.3454844540756601e-06 4.4350842920584206e-03 2.3860312934410