<?xml version="1.0"?>
<VTKFile type="UnstructuredGrid"  version="0.1"  >
<UnstructuredGrid>
<Piece  NumberOfPoints="760" NumberOfCells="3024">
<Points>
<DataArray  type="Float64"  NumberOfComponents="3"  format="ascii">0 0 0  0.05555555555555555 0 0  0.1111111111111111 0 0  0.1666666666666667 0 0  0.2222222222222222 0 0  0.2777777777777778 0 0  0.3333333333333333 0 0  0.3888888888888889 0 0  0.4444444444444444 0 0  0.5 0 0  0.5555555555555556 0 0  0.6111111111111112 0 0  0.6666666666666666 0 0  0.7222222222222222 0 0  0.7777777777777778 0 0  0.8333333333333334 0 0  0.8888888888888888 0 0  0.9444444444444444 0 0  1 0 0  0 0.01428571428571429 0  0.05555555555555555 0.01428571428571429 0  0.1111111111111111 0.01428571428571429 0  0.1666666666666667 0.01428571428571429 0  0.2222222222222222 0.01428571428571429 0  0.2777777777777778 0.01428571428571429 0  0.3333333333333333 0.01428571428571429 0  0.3888888888888889 0.01428571428571429 0  0.4444444444444444 0.01428571428571429 0  0.5 0.01428571428571429 0  0.5555555555555556 0.01428571428571429 0  0.6111111111111112 0.01428571428571429 0  0.6666666666666666 0.01428571428571429 0  0.7222222222222222 0.01428571428571429 0  0.7777777777777778 0.01428571428571429 0  0.8333333333333334 0.01428571428571429 0  0.8888888888888888 0.01428571428571429 0  0.9444444444444444 0.01428571428571429 0  1 0.01428571428571429 0  0 0.02857142857142857 0  0.05555555555555555 0.02857142857142857 0  0.1111111111111111 0.02857142857142857 0  0.1666666666666667 0.02857142857142857 0  0.2222222222222222 0.02857142857142857 0  0.2777777777777778 0.02857142857142857 0  0.3333333333333333 0.02857142857142857 0  0.3888888888888889 0.02857142857142857 0  0.4444444444444444 0.02857142857142857 0  0.5 0.02857142857142857 0  0.5555555555555556 0.02857142857142857 0  0.6111111111111112 0.02857142857142857 0  0.6666666666666666 0.02857142857142857 0  0.7222222222222222 0.02857142857142857 0  0.7777777777777778 0.02857142857142857 0  0.8333333333333334 0.02857142857142857 0  0.8888888888888888 0.02857142857142857 0  0.9444444444444444 0.02857142857142857 0  1 0.02857142857142857 0  0 0.04285714285714286 0  0.05555555555555555 0.04285714285714286 0  0.1111111111111111 0.04285714285714286 0  0.1666666666666667 0.04285714285714286 0  0.2222222222222222 0.04285714285714286 0  0.2777777777777778 0.04285714285714286 0  0.3333333333333333 0.04285714285714286 0  0.3888888888888889 0.04285714285714286 0  0.4444444444444444 0.04285714285714286 0  0.5 0.04285714285714286 0  0.5555555555555556 0.04285714285714286 0  0.6111111111111112 0.04285714285714286 0  0.6666666666666666 0.04285714285714286 0  0.7222222222222222 0.04285714285714286 0  0.7777777777777778 0.04285714285714286 0  0.8333333333333334 0.04285714285714286 0  0.8888888888888888 0.04285714285714286 0  0.9444444444444444 0.04285714285714286 0  1 0.04285714285714286 0  0 0.05714285714285715 0  0.05555555555555555 0.05714285714285715 0  0.1111111111111111 0.05714285714285715 0  0.1666666666666667 0.05714285714285715 0  0.2222222222222222 0.05714285714285715 0  0.2777777777777778 0.05714285714285715 0  0.3333333333333333 0.05714285714285715 0  0.3888888888888889 0.05714285714285715 0  0.4444444444444444 0.05714285714285715 0  0.5 0.05714285714285715 0  0.5555555555555556 0.05714285714285715 0  0.6111111111111112 0.05714285714285715 0  0.6666666666666666 0.05714285714285715 0  0.7222222222222222 0.05714285714285715 0  0.7777777777777778 0.05714285714285715 0  0.8333333333333334 0.05714285714285715 0  0.8888888888888888 0.05714285714285715 0  0.9444444444444444 0.05714285714285715 0  1 0.05714285714285715 0  0 0.07142857142857142 0  0.05555555555555555 0.07142857142857142 0  0.1111111111111111 0.07142857142857142 0  0.1666666666666667 0.07142857142857142 0  0.2222222222222222 0.07142857142857142 0  0.2777777777777778 0.07142857142857142 0  0.3333333333333333 0.07142857142857142 0  0.3888888888888889 0.07142857142857142 0  0.4444444444444444 0.07142857142857142 0  0.5 0.07142857142857142 0  0.5555555555555556 0.07142857142857142 0  0.6111111111111112 0.07142857142857142 0  0.6666666666666666 0.07142857142857142 0  0.7222222222222222 0.07142857142857142 0  0.7777777777777778 0.07142857142857142 0  0.8333333333333334 0.07142857142857142 0  0.8888888888888888 0.07142857142857142 0  0.9444444444444444 0.07142857142857142 0  1 0.07142857142857142 0  0 0.08571428571428573 0  0.05555555555555555 0.08571428571428573 0  0.1111111111111111 0.08571428571428573 0  0.1666666666666667 0.08571428571428573 0  0.2222222222222222 0.08571428571428573 0  0.2777777777777778 0.08571428571428573 0  0.3333333333333333 0.08571428571428573 0  0.3888888888888889 0.08571428571428573 0  0.4444444444444444 0.08571428571428573 0  0.5 0.08571428571428573 0  0.5555555555555556 0.08571428571428573 0  0.6111111111111112 0.08571428571428573 0  0.6666666666666666 0.08571428571428573 0  0.7222222222222222 0.08571428571428573 0  0.7777777777777778 0.08571428571428573 0  0.8333333333333334 0.08571428571428573 0  0.8888888888888888 0.08571428571428573 0  0.9444444444444444 0.08571428571428573 0  1 0.08571428571428573 0  0 0.1 0  0.05555555555555555 0.1 0  0.1111111111111111 0.1 0  0.1666666666666667 0.1 0  0.2222222222222222 0.1 0  0.2777777777777778 0.1 0  0.3333333333333333 0.1 0  0.3888888888888889 0.1 0  0.4444444444444444 0.1 0  0.5 0.1 0  0.5555555555555556 0.1 0  0.6111111111111112 0.1 0  0.6666666666666666 0.1 0  0.7222222222222222 0.1 0  0.7777777777777778 0.1 0  0.8333333333333334 0.1 0  0.8888888888888888 0.1 0  0.9444444444444444 0.1 0  1 0.1 0  0 0 0.01  0.05555555555555555 0 0.01  0.1111111111111111 0 0.01  0.1666666666666667 0 0.01  0.2222222222222222 0 0.01  0.2777777777777778 0 0.01  0.3333333333333333 0 0.01  0.3888888888888889 0 0.01  0.4444444444444444 0 0.01  0.5 0 0.01  0.5555555555555556 0 0.01  0.6111111111111112 0 0.01  0.6666666666666666 0 0.01  0.7222222222222222 0 0.01  0.7777777777777778 0 0.01  0.8333333333333334 0 0.01  0.8888888888888888 0 0.01  0.9444444444444444 0 0.01  1 0 0.01  0 0.01428571428571429 0.01  0.05555555555555555 0.01428571428571429 0.01  0.1111111111111111 0.01428571428571429 0.01  0.1666666666666667 0.01428571428571429 0.01  0.2222222222222222 0.01428571428571429 0.01  0.2777777777777778 0.01428571428571429 0.01  0.3333333333333333 0.01428571428571429 0.01  0.3888888888888889 0.01428571428571429 0.01  0.4444444444444444 0.01428571428571429 0.01  0.5 0.01428571428571429 0.01  0.5555555555555556 0.01428571428571429 0.01  0.6111111111111112 0.01428571428571429 0.01  0.6666666666666666 0.01428571428571429 0.01  0.7222222222222222 0.01428571428571429 0.01  0.7777777777777778 0.01428571428571429 0.01  0.8333333333333334 0.01428571428571429 0.01  0.8888888888888888 0.01428571428571429 0.01  0.9444444444444444 0.01428571428571429 0.01  1 0.01428571428571429 0.01  0 0.02857142857142857 0.01  0.05555555555555555 0.02857142857142857 0.01  0.1111111111111111 0.02857142857142857 0.01  0.1666666666666667 0.02857142857142857 0.01  0.2222222222222222 0.02857142857142857 0.01  0.2777777777777778 0.02857142857142857 0.01  0.3333333333333333 0.02857142857142857 0.01  0.3888888888888889 0.02857142857142857 0.01  0.4444444444444444 0.02857142857142857 0.01  0.5 0.02857142857142857 0.01  0.5555555555555556 0.02857142857142857 0.01  0.6111111111111112 0.02857142857142857 0.01  0.6666666666666666 0.02857142857142857 0.01  0.7222222222222222 0.02857142857142857 0.01  0.7777777777777778 0.02857142857142857 0.01  0.8333333333333334 0.02857142857142857 0.01  0.8888888888888888 0.02857142857142857 0.01  0.9444444444444444 0.02857142857142857 0.01  1 0.02857142857142857 0.01  0 0.04285714285714286 0.01  0.05555555555555555 0.04285714285714286 0.01  0.1111111111111111 0.04285714285714286 0.01  0.1666666666666667 0.04285714285714286 0.01  0.2222222222222222 0.04285714285714286 0.01  0.2777777777777778 0.04285714285714286 0.01  0.3333333333333333 0.04285714285714286 0.01  0.3888888888888889 0.04285714285714286 0.01  0.4444444444444444 0.04285714285714286 0.01  0.5 0.04285714285714286 0.01  0.5555555555555556 0.04285714285714286 0.01  0.6111111111111112 0.04285714285714286 0.01  0.6666666666666666 0.04285714285714286 0.01  0.7222222222222222 0.04285714285714286 0.01  0.7777777777777778 0.04285714285714286 0.01  0.8333333333333334 0.04285714285714286 0.01  0.8888888888888888 0.04285714285714286 0.01  0.9444444444444444 0.04285714285714286 0.01  1 0.04285714285714286 0.01  0 0.05714285714285715 0.01  0.05555555555555555 0.05714285714285715 0.01  0.1111111111111111 0.05714285714285715 0.01  0.1666666666666667 0.05714285714285715 0.01  0.2222222222222222 0.05714285714285715 0.01  0.2777777777777778 0.05714285714285715 0.01  0.3333333333333333 0.05714285714285715 0.01  0.3888888888888889 0.05714285714285715 0.01  0.4444444444444444 0.05714285714285715 0.01  0.5 0.05714285714285715 0.01  0.5555555555555556 0.05714285714285715 0.01  0.6111111111111112 0.05714285714285715 0.01  0.6666666666666666 0.05714285714285715 0.01  0.7222222222222222 0.05714285714285715 0.01  0.7777777777777778 0.05714285714285715 0.01  0.8333333333333334 0.05714285714285715 0.01  0.8888888888888888 0.05714285714285715 0.01  0.9444444444444444 0.05714285714285715 0.01  1 0.05714285714285715 0.01  0 0.07142857142857142 0.01  0.05555555555555555 0.07142857142857142 0.01  0.1111111111111111 0.07142857142857142 0.01  0.1666666666666667 0.07142857142857142 0.01  0.2222222222222222 0.07142857142857142 0.01  0.2777777777777778 0.07142857142857142 0.01  0.3333333333333333 0.07142857142857142 0.01  0.3888888888888889 0.07142857142857142 0.01  0.4444444444444444 0.07142857142857142 0.01  0.5 0.07142857142857142 0.01  0.5555555555555556 0.07142857142857142 0.01  0.6111111111111112 0.07142857142857142 0.01  0.6666666666666666 0.07142857142857142 0.01  0.7222222222222222 0.07142857142857142 0.01  0.7777777777777778 0.07142857142857142 0.01  0.8333333333333334 0.07142857142857142 0.01  0.8888888888888888 0.07142857142857142 0.01  
[...]
<PointData  Vectors="f_36"> 
<DataArray  type="Float64"  Name="f_36"  NumberOfComponents="3" format="ascii">0.0000000000000000e+00 0.0000000000000000e+00 0.0000000000000000e+00  1.7682863619792465e-03 -3.4152286993525760e-03 7.6250631879886616e-03  2.3169472980568749e-03 -6.9119880108098469e-03 1.7375690138994988e-02  2.2339948858487381e-03 -1.0234361585777478e-02 2.7586501315501655e-02  1.4865373203377583e-03 -1.2616227127538305e-02 3.5864509537933645e-02  2.4187455105757554e-04 -1.3299450446626039e-02 3.9269789281707219e-02  -8.2395850996661035e-04 -1.2304177278193048e-02 3.6813103806896612e-02  -8.7404028870293057e-04 -1.0800765576495045e-02 3.1476234610517226e-02  -2.8933684204168798e-05 -1.0249682537428643e-02 2.9166839385244867e-02  2.7486004565348325e-04 -1.0565873677554542e-02 3.1340891809051856e-02  -2.5271447068395451e-04 -1.0387558141508305e-02 3.1729709520967930e-02  -4.0027784604476641e-04 -9.6921611489708941e-03 2.9220133316503378e-02  -7.1387076907249679e-05 -9.3835550790389351e-03 2.8288746611089786e-02  1.0711884430602440e-04 -9.4747178272450751e-03 2.8941617550578988e-02  7.2859459895645615e-05 -9.6234225968330114e-03 2.9754296572898194e-02  -3.5603755772509596e-05 -9.6870134603820029e-03 3.0312999760591843e-02  -1.7648451490207600e-04 -9.6593203358255452e-03 3.0554073378295389e-02  -5.4373999544741829e-04 -9.6584433383065868e-03 3.0703908886808642e-02  -1.1042409426638077e-03 -1.0192332247041731e-02 3.0232088636311522e-02  0.0000000000000000e+00 0.0000000000000000e+00 0.0000000000000000e+00  1.6903655427418565e-03 -2.8755562232190978e-03 4.6191900210186491e-03  2.2139223688235230e-03 -6.0506098712972828e-03 1.1220927537585192e-02  2.1627958921945582e-03 -9.1616688343119299e-03 1.8389364091041461e-02  1.4992545522955660e-03 -1.1487273254138081e-02 2.4446684859908190e-02  3.3446475326188719e-04 -1.2282726516499429e-02 2.7179668713883380e-02  -7.2737510376386777e-04 -1.1473098394481716e-02 2.5626356043072403e-02  -8.8405505216166617e-04 -1.0066931962047512e-02 2.1718713393630386e-02  -1.1455779837165299e-04 -9.4688522362579280e-03 1.9925091562240566e-02  3.0372443343305470e-04 -9.7465659713780149e-03 2.1752504492357209e-02  -1.6661012374681749e-04 -9.6400143015268891e-03 2.2337420279786288e-02  -4.0154192249634596e-04 -9.0044557951564855e-03 2.0516251260522700e-02  -8.9031033414551598e-05 -8.6807051675132172e-03 1.9857193821902309e-02  1.1519141839666954e-04 -8.7472250349707632e-03 2.0438460123379916e-02  9.2959841899804133e-05 -8.8895144131937338e-03 2.1126448860982815e-02  -3.9813874351518628e-06 -8.9609407687948218e-03 2.1628495563590679e-02  -1.0831526294845752e-04 -8.9450835629796225e-03 2.1908492479938011e-02  -3.2869547915864331e-04 -8.9599317484224637e-03 2.2195985644694691e-02  -1.1040103919259705e-03 -9.7291659569141709e-03 2.2332585427455309e-02  0.0000000000000000e+00 0.0000000000000000e+00 0.0000000000000000e+00  1.0319734533674242e-03 -1.7151322571091021e-03 1.9112377987879142e-03  1.3770167244702924e-03 -3.7823370558183905e-03 5.0038494118064642e-03  1.3628737233424757e-03 -5.9103641457959608e-03 8.4855603287893426e-03  9.7496598215648055e-04 -7.5852484373039319e-03 1.1561356622632203e-02  2.6701323109256530e-04 -8.2518655154904218e-03 1.3105834378878876e-02  -4.0085297686171255e-04 -7.7714559270553501e-03 1.2531110568549757e-02  -5.3277715457211413e-04 -6.7761836921540006e-03 1.0669504943226145e-02  -7.2446462228402503e-05 -6.3008776835417578e-03 9.7948982237139499e-03  2.3193287286077608e-04 -6.5186134190819778e-03 1.0893514869953418e-02  -4.0193819114753632e-05 -6.5108689335157746e-03 1.1432975134743770e-02  -2.1882021546828478e-04 -6.0727133728715674e-03 1.0635128513655813e-02  -2.8420045070115197e-05 -5.8259763686445091e-03 1.0412573236102583e-02  1.1190620402299042e-04 -5.8718804129057351e-03 1.0853886660840258e-02  1.0281938760238215e-04 -5.9830554859499445e-03 1.1345974319008034e-02  4.6156733218706680e-05 -6.0489180703306921e-03 1.1745487229298067e-02  -6.8830361437455139e-06 -6.0573289126644465e-03 1.2038182181553178e-02  -5.1273162191454618e-05 -6.0577391236829098e-03 1.2364007977060701e-02  -1.1306943644981691e-03 -7.0954608186926203e-03 1.2881645465137856e-02  0.0000000000000000e+00 0.0000000000000000e+00 0.0000000000000000e+00  1.5355475426062211e-05 -1.3384336603827635e-06 2.2986798720733846e-05  2.9083822104600954e-05 -4.2554990034044507e-06 8.5819733213918480e-05  4.1212404209965200e-05 -8.7082692086478703e-06 1.8511328577069789e-04  5.1764429177501698e-05 -1.4488336487092881e-05 3.1629253807686543e-04  6.0847722030910696e-05 -2.1426623620547750e-05 4.7503137794978773e-04  6.8596372397352828e-05 -2.9364612597638556e-05 6.5736656031342624e-04  7.5144520903130523e-05 -3.8157839458462216e-05 8.5973839204003626e-04  8.0605900620663758e-05 -4.7675698048464606e-05 1.0789504154536153e-03  8.5075066074148480e-05 -5.7798739863446528e-05 1.3120835254554792e-03  8.8649661483596018e-05 -6.8416436503351046e-05 1.5564622266879642e-03  9.1437902082719231e-05 -7.9428414351726784e-05 1.8097110686663869e-03  9.3542961277921243e-05 -9.0746382918282723e-05 2.0697712654994165e-03  9.5058544277760947e-05 -1.0229331163986160e-04 2.3348523062218544e-03  9.6077817207076743e-05 -1.1400234002165559e-04 2.6034183748832019e-03  9.6697411069532986e-05 -1.2581740737239533e-04 2.8742009432726882e-03  9.7016580867814481e-05 -1.3769410805957396e-04 3.1462087642625670e-03  9.7135810512775057e-05 -1.4960055131073467e-04 3.4187335027806125e-03  9.7157232798352974e-05 -1.6151906413359527e-04 3.6913541580819026e-03  0.0000000000000000e+00 0.0000000000000000e+00 0.0000000000000000e+00  1.4516115389582951e-05 -2.1613738570022096e-06 2.2746562782289523e-05  2.8809558436653736e-05 -4.9891823949156247e-06 8.5471443907315727e-05  4.1460983290541017e-05 -9.3503928807197653e-06 1.8471904801500242e-04  5.2478753376552631e-05 -1.5040892673881539e-05 3.1585630676917749e-04  6.1972796982468528e-05 -2.1897708362159881e-05 4.7455680175485869e-04  7.0079566969536374e-05 -2.9763194565731086e-05 6.5685786184213016e-04  7.6938313211787372e-05 -3.8491544654813392e-05 8.5920049933224500e-04  8.2668825482936823e-05 -4.7949979885157700e-05 1.0783879558037104e-03  8.7369156277310425e-05 -5.8018509060874454e-05 1.3114999330356915e-03  9.1137524253361715e-05 -6.8587985092530957e-05 1.5558600693137755e-03  9.4084599651124507e-05 -7.9558362369708336e-05 1.8090929639723247e-03  9.6318174001303066e-05 -9.0840277194172039e-05 2.0691397323533748e-03  9.7935158160514948e-05 -1.0235636820456130e-04 2.3342093630440435e-03  9.9030992188662222e-05 -1.1404011318839594e-04 2.6027658103083572e-03  9.9704834078573806e-05 -1.2583572956662478e-04 2.8735404309893900e-03  1.0005884892381858e-04 -1.3769891760939573e-04 3.1455417638249238e-03  1.0019670273815365e-04 -1.4959774431866083e-04 3.4180609851468171e-03  1.0022377911751628e-04 -1.6151349132901378e-04 3.6906760977411909e-03  0.0000000000000000e+00 0.0000000000000000e+00 0.0000000000000000e+00  1.1508443011485343e-03 1.9119588962046585e-03 2.8811705718003056e-03  1.4035729589799483e-03 4.1307910280347342e-03 6.4917419503171441e-03  1.3185689794977425e-03 6.4253731961607784e-03 1.0214292624878035e-02  8.6528562626116926e-04 8.2558040390983516e-03 1.3203231228573011e-02  1.4589674224018022e-04 9.0456970153019525e-03 1.4356864624242972e-02  -4.4272178960368623e-04 8.6269547641790543e-03 1.3375873197671962e-02  -4.4899937438831522e-04 7.5823290914286716e-03 1.1453165257382811e-02  4.4911374224336683e-05 6.9525054427460199e-03 1.0832545852973439e-02  2.4087132345387133e-04 7.0906230951786444e-03 1.2016803343775754e-02  -4.9826588933095380e-05 7.1389059261494203e-03 1.2387691753216383e-02  -1.5989374797692192e-04 6.6967110769523726e-03 1.1546791228233929e-02  -8.9487542271068382e-07 6.3279760947321092e-03 1.1341171276660646e-02  1.0528313544617666e-04 6.2375970210354417e-03 1.1672256171184506e-02  1.1145275684770709e-04 6.2556633050267528e-03 1.2061124512974355e-02  7.1704116233486462e-05 6.2711757150317122e-03 1.2396918979698669e-02  2.7246530595485002e-05 6.2776228732205558e-03 1.2670513235260993e-02  -9.5341195715106442e-05 6.4238180828897337e-03 1.2996124862795489e-02  -7.2684706756082518e-04 7.2961841213704639e-03 1.2875950550744720e-02  0.0000000000000000e+00 0.0000000000000000e+00 0.0000000000000000e+00  1.8105156367632098e-03 2.4771028657582335e-03 5.6993397981803234e-03  2.2434821491171351e-03 5.5656715379416117e-03 1.2774273078416427e-02  2.1130927792065526e-03 8.7870406671398688e-03 2.0051253389731738e-02  1.4008158150724331e-03 1.1425989521755244e-02 2.5887416044981286e-02  2.4314753113424087e-04 1.2677763084953516e-02 2.8179332414841805e-02  -7.3772502755516665e-04 1.2250271144239655e-02 2.6316086045749778e-02  -8.0428834065126805e-04 1.0858192240402692e-02 2.2489696531715699e-02  -1.8280118134608579e-05 9.9056532389418962e-03 2.0891845906620715e-02  3.6119924328978224e-04 1.0001360233311800e-02 2.2709124834504862e-02  -1.0760517407324269e-04 1.0089540342773068e-02 2.3249786531019816e-02  -3.3495895056913903e-04 9.5265820533223088e-03 2.1474577073685615e-02  -7.3024273732079251e-05 8.9944570581372008e-03 2.0733307209971484e-02  1.0930192826942766e-04 8.8319942021504831e-03 2.1041687801811194e-02  1.1949794437635481e-04 8.8424072691377330e-03 2.1507900454601891e-02  5.1604052657448242e-05 8.8658838485373079e-03 2.1897448083839522e-02  -4.3827397246312246e-05 8.8882255391788106e-03 2.2173725593215926e-02  -2.4496618917431852e-04 9.1434242435883047e-03 2.2552017854630294e-02  -6.8112998412551702e-04 1.0509859807925877e-02 2.2260775226661981e-02  0.0000000000000000e+00 0.0000000000000000e+00 0.0000000000000000e+00  1.8116862537782830e-03 2.4087244455812586e-03 7.9116621778024619e-03  2.3078316805505298e-03 5.6869053123846554e-03 1.7724619125922794e-02  2.2198793987038778e-03 9.1325539674119369e-03 2.7845902414788015e-02  1.5464460052008807e-03 1.2019912199245041e-02 3.6010628990136975e-02  3.6398818136007083e-04 1.3481710472299945e-02 3.9402588122432324e-02  -7.2007304317517492e-04 1.3150404355277196e-02 3.7152630158106353e-02  -9.0573319976781507e-04 1.1712543654902581e-02 3.2076277598806990e-02  -1.0482748997484378e-04 1.0646621423025332e-02 2.9609254935138187e-02  4.3218179430697606e-04 1.0691567358308812e-02 3.1575134615669131e-02  -4.2541052779663444e-05 1.0797887420756607e-02 3.2247637500738648e-02  -3.8405312071911610e-04 1.0228043862286313e-02 2.9928304838840594e-02  -1.0386324984124037e-04 9.6520037302787361e-03 2.8717927582541578e-02  1.1351104045294548e-04 9.4539654059354154e-03 2.8915732613071086e-02  1.2548043029569743e-04 9.4532472454665062e-03 2.9406537797589262e-02  4.7121400634243247e-05 9.4803492539439187e-03 2.9838230072854559e-02  -8.7675085255191270e-05 9.5176703922164388e-03 3.0143674176263624e-02  -4.0255255332699949e-04 9.7865922772112784e-03 3.0645146761573937e-02  -7.6246464677844907e-04 1.1346063968095836e-02 3.0818148409558009e-02  0.0000000000000000e+00 0.0000000000000000e+00 0.0000000000000000e+00  7.0790557143438819e-04 -1.3266470264190258e-03 7.3321310925622196e-03  1.0157370488117184e-03 -2.8625997168660600e-03 1.7022207185804373e-02  1.0173043488273519e-03 -4.3377043217530768e-03 2.7181933065826797e-02  7.2908799378937372e-04 -5.4372724369304301e-03 3.5470002452429060e-02  2.0256533801666127e-04 -5.8049695861413959e-03 3.8944171843129066e-02  -2.9870438608640249e-04 -5.4004224033305506e-03 3.6554733241416115e-02  -4.0386323960198546e-04 -4.7113835587514440e-03 3.1211824304486168e-02  -7.6172920825717517e-05 -4.4291219736987339e-03 2.8843189665892794e-02  1.0684626128859975e-04 -4.5909217062661406e-03 3.1023100343060814e-02  -9.6179855923031075e-05 -4.5593462718954321e-03 3.1474688039255072e-02  -2.0050587841173497e-04 -4.2511882563524995e-03 2.8970977102430847e-02  -7.9062710969086362e-05 -4.0988091048459081e-03 2.8012141299978279e-02  -2.3083032415367768e-06 -4.1446545161301033e-03 2.8661118371311915e-02  -2.9812233001025549e-05 -4.2197984999306484e-03 2.9478826071754002e-02  -1.0151589939761961e-04 -4.2542373492436905e-03 3.0042413172992319e-02  -2.1566526288994403e-04 -4.2550734631296785e-03 3.0288018483847472e-02  -5.2177597923875056e-04 -4.3590764089365148e-03 3.0436357207972425e-02  -9.9433139521599642e-04 -4.9627045409024054e-03 2.9963819220449231e-02  0.0000000000000000e+00 0.0000000000000000e+00 0.0000000000000000e+00  7.6746669188085021e-04 -1.1663349805323977e-03 4.4092096421769270e-03  1.0644532558810190e-03 -2.5030945369829203e-03 1.0948072044751275e-02  1.0606300215231211e-03 -3.8217996052987515e-03 1.8058335061291248e-02  7.6879314579578314e-04 -4.8224686572464794e-03 2.4102953131881322e-02  2.2741766968940717e-04 -5.1864113771142011e-03 2.6871376237217848e-02  -2.9935730870044220e-04 -4.8645381654716102e-03 2.5359237099848407e-02  -4.3208278916323799e-04 -4.2682348289274476e-03 2.1443312794769333e-02  -1.0503195782732289e-04 -4.0010803178272764e-03 1.9603255038749788e-02  1.2347922214540294e-04 -4.1230015974319184e-03 2.1442118697009682e-02  -7.0761117057489077e-05 -4.1016086277679761e-03 2.2086164289548425e-02  -2.0868430790301417e-04 -3.8411493582824049e-03 2.0268271899917180e-02  -8.3131717571110225e-05 -3.6998166330193334e-03 1.9585153694295140e-02  1.2375104546366272e-05 -3.7317345430864235e-03 2.0168693463752146e-02  -8.1124849870274088e-06 -3.7976329362971028e-03 2.0864226796612442e-02  -7.3571474966089426e-05 -3.8309834294494379e-03 2.1370561112490138e-02  -1.5575654501593446e-04 -3.8278348030109884e-03 2.1653321393918346e-02  -3.3955159640449659e-04 -3.8933450433963879e-03 2.1946120841642797e-02  -9.2271912050862393e-04 -4.5326759722153151e-03 2.2148289893065623e-02  0.0000000000000000e+00 0.0000000000000000e+00 0.0000000000000000e+00  5.0900898473769571e-04 -7.0494242179201675e-04 1.6606265268486720e-03  7.0290674327505001e-04 -1.5217314053582725e-03 4.5659333690164523e-03  7.0287700596194825e-04 -2.3544173923667469e-03 7.8661339755100399e-03  5.1778351490468493e-04 -3.0026825335649223e-03 1.0821972744192953e-02  1.6801935629235621e-04 -3.2601642384970336e-03 1.2337693878824703e-02  -1.7747985201864840e-04 -3.0827633857269318e-03 1.1802742474688958e-02  -2.7298526073187251e-04 -2.7148920395621643e-03 9.9823669980369824e-03  -6.5775120471030043e-05 -2.5386883568047289e-03 9.1101402334572180e-03  9.9405560105165876e-05 -2.6128862891304761e-03 1.0221706781320419e-02  -1.7019088140042175e-05 -2.6095461068909300e-03 1.0809130415425411e-02  -1.1919341659828214e-04 -2.4537932602950070e-03 1.0034883483671682e-02  -3.9229288206469974e-05 -2.3650823302462749e-03 9.8113854744449752e-03  3.0670964020846544e-05 -2.3851257256552461e-03 1.0258637327665521e-02  2.1159728279868434e-05 -2.4309730278640981e-03 1.0754107342445321e-02  -1.7736791072409263e-05 -2.4590945391214859e-03 1.1154395388399059e-02  -5.7638207648509891e-05 -2.4641525418223095e-03 1.1450572780062854e-02  -1.0700798883165331e-04 -2.4814172294456661e-03 1.1778987919930010e-02  -8.0231830743038323e-04 -3.0343825904075267e-03 1.2313026602793445e-02  0.0000000000000000e+00 0.0000000000000000e+00 0.0000000000000000e+00  7.2266056078304337e-06 -1.2442113926753774e-06 2.2349458946544552e-05  1.4112990170168463e-05 -4.1297531698449803e-06 8.5243125535331801e-05  2.0147041303698548e-05 -8.5325368167909049e-06 1.8460360716375708e-04  2.5398374208289182e-05 -1.4268554049865502e-05 3.1584927708398888e-04  2.9921178319027344e-05 -2.1166708443997792e-05 4.7464992940880529e-04  3.3781087506592691e-05 -2.9069288365791775e-05 6.5704140361102549e-04  3.7044688777282781e-05 -3.7831932060165977e-05 8.5946406167020572e-04  3.9769289831485158e-05 -4.7323191105861578e-05 1.0787221568968983e-03  4.2002200909709146e-05 -5.7422639744731501e-05 1.3118971640498449e-03  4.3791016053160118e-05 -6.8019653773354315e-05 1.5563134549940645e-03  4.5188721642306548e-05 -7.9013997123058788e-05 1.8095953113028333e-03  4.6246689391493521e-05 -9.0316939521737109e-05 2.0696841762731354e-03  4.7011437239726861e-05 -1.0185103996869308e-04 2.3347898315816918e-03  4.7528797488557379e-05 -1.1354939669851435e-04 2.6033764588842957e-03  4.7846270729716344e-05 -1.2535594448834575e-04 2.8741754102144471e-03  4.8012694702694412e-05 -1.3722614772871159e-04 3.1461953351963395e-03  4.8077401532265229e-05 -1.4912785612228042e-04 3.4187277798402313e-03  4.8089618425797503e-05 -1.6104230928636680e-04 3.6913498938462566e-03  0.0000000000000000e+00 0.0000000000000000e+00 0.0000000000000000e+00  7.3463341550817546e-06 -1.8456309128337515e-06 2.1980851669967934e-05  1.4743514545469696e-05 -4.6157404398575941e-06 8.4835160604838263e-05  2.1182224914914772e-05 -8.9545945672294190e-06 1.8415788332061601e-04  2.6791102854832254e-05 -1.4632611939750422e-05 3.1536737301265694e-04  3.1626127159385098e-05 -2.1477966308003260e-05 4.7413501106152744e-04  3.5755922055417132e-05 -2.9333193669835193e-05 6.5649742447820326e-04  3.9250819048043803e-05 -3.8053371855556977e-05 8.5889544244854084e-04  4.2171975167542203e-05 -4.7505976605403087e-05 1.0781329498019785e-03  4.4569674444636763e-05 -5.7570117049630580e-05 1.3112904908578055e-03  4.6493607160826129e-05 -6.8135682665245511e-05 1.5556918081618667e-03  4.7999403176806447e-05 -7.9102700858887652e-05 1.8089610573826132e-03  4.9141789560668375e-05 -9.0381997312723061e-05 2.0690394232894737e-03  4.9970252205103540e-05 -1.0189587000927231e-04 2.3341363068111907e-03  5.0533256379172699e-05 -1.1357753424958499e-04 2.6027157380420604e-03  5.0881067245104453e-05 -1.2537108827721444e-04 2.8735089491782342e-03  5.1065538242134930e-05 -1.3723207270449007e-04 3.1455243694225301e-03  5.1139240930914826e-05 -1.4912825571662824e-04 3.4180531363441199e-03  5.1154793428421155e-05 -1.6104018090830785e-04 3.6906725622635078e-03  0.0000000000000000e+00 0.0000000000000000e+00 0.0000000000000000e+00  5.7004787243877353e-04 6.7756467997766984e-04 2.5437929909574702e-03  7.2526239500102533e-04 1.4418828384464330e-03 5.7589615212256737e-03  7.0361989796239102e-04 2.2487614033510472e-03 9.0460474924938979e-03  4.9675687629372053e-04 2.8984794025044736e-03 1.1668928433856736e-02  1.3735991793916287e-04 3.1858076607740207e-03 1.2627397252906103e-02  -1.8806086863900067e-04 3.0468062289820763e-03 1.1658988620858998e-02  -2.4023774262815889e-04 2.6777723054706246e-03 9.8776044914741078e-03  -8.3374821857852269e-06 2.4397110053832861e-03 9.3763114658063258e-03  1.3142032657768781e-04 2.4695561490548049e-03 1.0591174647595156e-02  4.1957367139724760e-06 2.4803793968413575e-03 1.0971526035316195e-02  -7.9419780441054711e-05 2.3226880895989375e-03 1.0178387119829789e-02  -1.1274753252968484e-05 2.1829500014794224e-03 1.0034417370408683e-02  4.6947920356276626e-05 2.1377722926893888e-03 1.0399811672178483e-02  4.8536677986656567e-05 2.1319286397316955e-03 1.0794064670122052e-02  1.7414718427970231e-05 2.1247643135430421e-03 1.1127175119277263e-02  -2.3435745500281745e-05 2.1165897394503476e-03 1.1394201435245265e-02  -8.4927837631294358e-05 2.1942696708494450e-03 1.1682555700522739e-02  -5.6102342883588533e-04 2.5804954537732229e-03 1.1237922529649192e-02  0.0000000000000000e+00 0.0000000000000000e+00 0.0000000000000000e+00  8.1630373414479996e-04 1.0762142726705353e-03 5.4883336703360026e-03  1.0815990568300653e-03 2.4499374999151632e-03 1.2435530366268528e-02  1.0505504074523788e-03 3.9016167658792928e-03 1.9534371567172758e-02  7.4716951868053754e-04 5.1083581605636478e-03 2.5222576086305119e-02  2.0707353362765262e-04 5.7005728147740955e-03 2.7432012652975839e-02  -2.9473957408825976e-04 5.5319717021922628e-03 2.5551752394623740e-02  -3.9038967206718499e-04 4.9073775069894340e-03 2.1742376487966068e-02  -4.0276340833831433e-05 4.4567218023083277e-03 2.0167053737531044e-02  1.9060184105043542e-04 4.4775473377889948e-03 2.2026437903946362e-02  -5.1686462366108373e-06 4.5137213291271735e-03 2.2609997870643862e-02  -1.4894011774202248e-04 4.2628635224117167e-03 2.0841637390702702e-02  -4.4141029405159930e-05 4.0146276891119669e-03 2.0108462057756071e-02  4.6581069734061231e-05 3.9267356245218724e-03 2.0440530905816531e-02  4.650204421