<?xml version="1.0"?>
<VTKFile type="UnstructuredGrid"  version="0.1"  >
<UnstructuredGrid>
<Piece  NumberOfPoints="760" NumberOfCells="3024">
<Points>
<DataArray  type="Float64"  NumberOfComponents="3"  format="ascii">0 0 0  0.05555555555555555 0 0  0.1111111111111111 0 0  0.1666666666666667 0 0  0.2222222222222222 0 0  0.2777777777777778 0 0  0.3333333333333333 0 0  0.3888888888888889 0 0  0.4444444444444444 0 0  0.5 0 0  0.5555555555555556 0 0  0.6111111111111112 0 0  0.6666666666666666 0 0  0.7222222222222222 0 0  0.7777777777777778 0 0  0.8333333333333334 0 0  0.8888888888888888 0 0  0.9444444444444444 0 0  1 0 0  0 0.01428571428571429 0  0.05555555555555555 0.01428571428571429 0  0.1111111111111111 0.01428571428571429 0  0.1666666666666667 0.01428571428571429 0  0.2222222222222222 0.01428571428571429 0  0.2777777777777778 0.01428571428571429 0  0.3333333333333333 0.01428571428571429 0  0.3888888888888889 0.01428571428571429 0  0.4444444444444444 0.01428571428571429 0  0.5 0.01428571428571429 0  0.5555555555555556 0.01428571428571429 0  0.6111111111111112 0.01428571428571429 0  0.6666666666666666 0.01428571428571429 0  0.7222222222222222 0.01428571428571429 0  0.7777777777777778 0.01428571428571429 0  0.8333333333333334 0.01428571428571429 0  0.8888888888888888 0.01428571428571429 0  0.9444444444444444 0.01428571428571429 0  1 0.01428571428571429 0  0 0.02857142857142857 0  0.05555555555555555 0.02857142857142857 0  0.1111111111111111 0.02857142857142857 0  0.1666666666666667 0.02857142857142857 0  0.2222222222222222 0.02857142857142857 0  0.2777777777777778 0.02857142857142857 0  0.3333333333333333 0.02857142857142857 0  0.3888888888888889 0.02857142857142857 0  0.4444444444444444 0.02857142857142857 0  0.5 0.02857142857142857 0  0.5555555555555556 0.02857142857142857 0  0.6111111111111112 0.02857142857142857 0  0.6666666666666666 0.02857142857142857 0  0.7222222222222222 0.02857142857142857 0  0.7777777777777778 0.02857142857142857 0  0.8333333333333334 0.02857142857142857 0  0.8888888888888888 0.02857142857142857 0  0.9444444444444444 0.02857142857142857 0  1 0.02857142857142857 0  0 0.04285714285714286 0  0.05555555555555555 0.04285714285714286 0  0.1111111111111111 0.04285714285714286 0  0.1666666666666667 0.04285714285714286 0  0.2222222222222222 0.04285714285714286 0  0.2777777777777778 0.04285714285714286 0  0.3333333333333333 0.04285714285714286 0  0.3888888888888889 0.04285714285714286 0  0.4444444444444444 0.04285714285714286 0  0.5 0.04285714285714286 0  0.5555555555555556 0.04285714285714286 0  0.6111111111111112 0.04285714285714286 0  0.6666666666666666 0.04285714285714286 0  0.7222222222222222 0.04285714285714286 0  0.7777777777777778 0.04285714285714286 0  0.8333333333333334 0.04285714285714286 0  0.8888888888888888 0.04285714285714286 0  0.9444444444444444 0.04285714285714286 0  1 0.04285714285714286 0  0 0.05714285714285715 0  0.05555555555555555 0.05714285714285715 0  0.1111111111111111 0.05714285714285715 0  0.1666666666666667 0.05714285714285715 0  0.2222222222222222 0.05714285714285715 0  0.2777777777777778 0.05714285714285715 0  0.3333333333333333 0.05714285714285715 0  0.3888888888888889 0.05714285714285715 0  0.4444444444444444 0.05714285714285715 0  0.5 0.05714285714285715 0  0.5555555555555556 0.05714285714285715 0  0.6111111111111112 0.05714285714285715 0  0.6666666666666666 0.05714285714285715 0  0.7222222222222222 0.05714285714285715 0  0.7777777777777778 0.05714285714285715 0  0.8333333333333334 0.05714285714285715 0  0.8888888888888888 0.05714285714285715 0  0.9444444444444444 0.05714285714285715 0  1 0.05714285714285715 0  0 0.07142857142857142 0  0.05555555555555555 0.07142857142857142 0  0.1111111111111111 0.07142857142857142 0  0.1666666666666667 0.07142857142857142 0  0.2222222222222222 0.07142857142857142 0  0.2777777777777778 0.07142857142857142 0  0.3333333333333333 0.07142857142857142 0  0.3888888888888889 0.07142857142857142 0  0.4444444444444444 0.07142857142857142 0  0.5 0.07142857142857142 0  0.5555555555555556 0.07142857142857142 0  0.6111111111111112 0.07142857142857142 0  0.6666666666666666 0.07142857142857142 0  0.7222222222222222 0.07142857142857142 0  0.7777777777777778 0.07142857142857142 0  0.8333333333333334 0.07142857142857142 0  0.8888888888888888 0.07142857142857142 0  0.9444444444444444 0.07142857142857142 0  1 0.07142857142857142 0  0 0.08571428571428573 0  0.05555555555555555 0.08571428571428573 0  0.1111111111111111 0.08571428571428573 0  0.1666666666666667 0.08571428571428573 0  0.2222222222222222 0.08571428571428573 0  0.2777777777777778 0.08571428571428573 0  0.3333333333333333 0.08571428571428573 0  0.3888888888888889 0.08571428571428573 0  0.4444444444444444 0.08571428571428573 0  0.5 0.08571428571428573 0  0.5555555555555556 0.08571428571428573 0  0.6111111111111112 0.08571428571428573 0  0.6666666666666666 0.08571428571428573 0  0.7222222222222222 0.08571428571428573 0  0.7777777777777778 0.08571428571428573 0  0.8333333333333334 0.08571428571428573 0  0.8888888888888888 0.08571428571428573 0  0.9444444444444444 0.08571428571428573 0  1 0.08571428571428573 0  0 0.1 0  0.05555555555555555 0.1 0  0.1111111111111111 0.1 0  0.1666666666666667 0.1 0  0.2222222222222222 0.1 0  0.2777777777777778 0.1 0  0.3333333333333333 0.1 0  0.3888888888888889 0.1 0  0.4444444444444444 0.1 0  0.5 0.1 0  0.5555555555555556 0.1 0  0.6111111111111112 0.1 0  0.6666666666666666 0.1 0  0.7222222222222222 0.1 0  0.7777777777777778 0.1 0  0.8333333333333334 0.1 0  0.8888888888888888 0.1 0  0.9444444444444444 0.1 0  1 0.1 0  0 0 0.01  0.05555555555555555 0 0.01  0.1111111111111111 0 0.01  0.1666666666666667 0 0.01  0.2222222222222222 0 0.01  0.2777777777777778 0 0.01  0.3333333333333333 0 0.01  0.3888888888888889 0 0.01  0.4444444444444444 0 0.01  0.5 0 0.01  0.5555555555555556 0 0.01  0.6111111111111112 0 0.01  0.6666666666666666 0 0.01  0.7222222222222222 0 0.01  0.7777777777777778 0 0.01  0.8333333333333334 0 0.01  0.8888888888888888 0 0.01  0.9444444444444444 0 0.01  1 0 0.01  0 0.01428571428571429 0.01  0.05555555555555555 0.01428571428571429 0.01  0.1111111111111111 0.01428571428571429 0.01  0.1666666666666667 0.01428571428571429 0.01  0.2222222222222222 0.01428571428571429 0.01  0.2777777777777778 0.01428571428571429 0.01  0.3333333333333333 0.01428571428571429 0.01  0.3888888888888889 0.01428571428571429 0.01  0.4444444444444444 0.01428571428571429 0.01  0.5 0.01428571428571429 0.01  0.5555555555555556 0.01428571428571429 0.01  0.6111111111111112 0.01428571428571429 0.01  0.6666666666666666 0.01428571428571429 0.01  0.7222222222222222 0.01428571428571429 0.01  0.7777777777777778 0.01428571428571429 0.01  0.8333333333333334 0.01428571428571429 0.01  0.8888888888888888 0.01428571428571429 0.01  0.9444444444444444 0.01428571428571429 0.01  1 0.01428571428571429 0.01  0 0.02857142857142857 0.01  0.05555555555555555 0.02857142857142857 0.01  0.1111111111111111 0.02857142857142857 0.01  0.1666666666666667 0.02857142857142857 0.01  0.2222222222222222 0.02857142857142857 0.01  0.2777777777777778 0.02857142857142857 0.01  0.3333333333333333 0.02857142857142857 0.01  0.3888888888888889 0.02857142857142857 0.01  0.4444444444444444 0.02857142857142857 0.01  0.5 0.02857142857142857 0.01  0.5555555555555556 0.02857142857142857 0.01  0.6111111111111112 0.02857142857142857 0.01  0.6666666666666666 0.02857142857142857 0.01  0.7222222222222222 0.02857142857142857 0.01  0.7777777777777778 0.02857142857142857 0.01  0.8333333333333334 0.02857142857142857 0.01  0.8888888888888888 0.02857142857142857 0.01  0.9444444444444444 0.02857142857142857 0.01  1 0.02857142857142857 0.01  0 0.04285714285714286 0.01  0.05555555555555555 0.04285714285714286 0.01  0.1111111111111111 0.04285714285714286 0.01  0.1666666666666667 0.04285714285714286 0.01  0.2222222222222222 0.04285714285714286 0.01  0.2777777777777778 0.04285714285714286 0.01  0.3333333333333333 0.04285714285714286 0.01  0.3888888888888889 0.04285714285714286 0.01  0.4444444444444444 0.04285714285714286 0.01  0.5 0.04285714285714286 0.01  0.5555555555555556 0.04285714285714286 0.01  0.6111111111111112 0.04285714285714286 0.01  0.6666666666666666 0.04285714285714286 0.01  0.7222222222222222 0.04285714285714286 0.01  0.7777777777777778 0.04285714285714286 0.01  0.8333333333333334 0.04285714285714286 0.01  0.8888888888888888 0.04285714285714286 0.01  0.9444444444444444 0.04285714285714286 0.01  1 0.04285714285714286 0.01  0 0.05714285714285715 0.01  0.05555555555555555 0.05714285714285715 0.01  0.1111111111111111 0.05714285714285715 0.01  0.1666666666666667 0.05714285714285715 0.01  0.2222222222222222 0.05714285714285715 0.01  0.2777777777777778 0.05714285714285715 0.01  0.3333333333333333 0.05714285714285715 0.01  0.3888888888888889 0.05714285714285715 0.01  0.4444444444444444 0.05714285714285715 0.01  0.5 0.05714285714285715 0.01  0.5555555555555556 0.05714285714285715 0.01  0.6111111111111112 0.05714285714285715 0.01  0.6666666666666666 0.05714285714285715 0.01  0.7222222222222222 0.05714285714285715 0.01  0.7777777777777778 0.05714285714285715 0.01  0.8333333333333334 0.05714285714285715 0.01  0.8888888888888888 0.05714285714285715 0.01  0.9444444444444444 0.05714285714285715 0.01  1 0.05714285714285715 0.01  0 0.07142857142857142 0.01  0.05555555555555555 0.07142857142857142 0.01  0.1111111111111111 0.07142857142857142 0.01  0.1666666666666667 0.07142857142857142 0.01  0.2222222222222222 0.07142857142857142 0.01  0.2777777777777778 0.07142857142857142 0.01  0.3333333333333333 0.07142857142857142 0.01  0.3888888888888889 0.07142857142857142 0.01  0.4444444444444444 0.07142857142857142 0.01  0.5 0.07142857142857142 0.01  0.5555555555555556 0.07142857142857142 0.01  0.6111111111111112 0.07142857142857142 0.01  0.6666666666666666 0.07142857142857142 0.01  0.7222222222222222 0.07142857142857142 0.01  0.7777777777777778 0.07142857142857142 0.01  0.8333333333333334 0.07142857142857142 0.01  0.8888888888888888 0.07142857142857142 0.01  
[...]
<PointData  Vectors="f_36"> 
<DataArray  type="Float64"  Name="f_36"  NumberOfComponents="3" format="ascii">0.0000000000000000e+00 0.0000000000000000e+00 0.0000000000000000e+00  1.4348948594024519e-03 -2.9193148128289839e-03 7.2464521268365513e-03  1.2147518086040956e-03 -5.0498252214487309e-03 1.4215511704028199e-02  1.3506027523981938e-04 -5.6783581712570230e-03 1.7414465515870364e-02  -1.1552832892733765e-03 -4.4438926937316369e-03 1.4640874211096552e-02  -1.7474792578171404e-03 -2.0639786584474820e-03 7.0468026275510576e-03  -1.1151164287584406e-03 -1.5432877283031663e-04 -9.4068171897562598e-05  -1.7264657118816216e-04 3.3931737681540072e-04 -1.7398198076482008e-03  -1.6618116881674937e-04 3.5842447789790651e-04 -7.2038892958987619e-04  -4.4058392772581271e-04 9.1067080320592357e-04 -2.5379475436829685e-03  -3.2257868418708477e-04 1.5181127094932997e-03 -4.5381977930495244e-03  -4.5609494248918803e-04 2.1242406255297434e-03 -5.6759875396670528e-03  -6.8905987080151543e-04 3.1093853099764725e-03 -8.7721312862860789e-03  -5.4529122738139393e-04 4.0287185535697106e-03 -1.1961766189965355e-02  -2.8087348827637295e-04 4.5508824129691086e-03 -1.3652658657087650e-02  -1.5135468992300214e-04 4.8145430343547813e-03 -1.4468552763473946e-02  -1.0374306032833289e-04 5.0074347017640148e-03 -1.5098826994948789e-02  9.7489361089750170e-05 5.1969616106013628e-03 -1.5762283929134063e-02  4.2248372572198438e-04 5.5507957134921636e-03 -1.5798521389493444e-02  0.0000000000000000e+00 0.0000000000000000e+00 0.0000000000000000e+00  1.3991481351997635e-03 -2.5107689587247958e-03 4.6257056079167481e-03  1.2251772344015223e-03 -4.5372748454016757e-03 9.6254977084536970e-03  2.2852819967328865e-04 -5.2696480578128977e-03 1.2186093069572107e-02  -1.0148713471004481e-03 -4.2722877802672142e-03 1.0494452318744664e-02  -1.6680352795209617e-03 -2.1071038809546451e-03 5.0974193396437365e-03  -1.1651760217994316e-03 -2.4989430205901665e-04 -2.4884262328638294e-04  -2.1759788174213960e-04 2.9997746014226190e-04 -1.4782596096254025e-03  -9.6564108419410283e-05 3.0621790867910636e-04 -4.7467381718204854e-04  -4.1856332516306580e-04 7.8142351972526830e-04 -1.7376335527509519e-03  -3.4137576716507982e-04 1.3443960116315890e-03 -3.2147226647792852e-03  -4.0554062891036511e-04 1.8849033477255726e-03 -3.8442863582046380e-03  -6.5892499874200107e-04 2.7781747342457198e-03 -6.0088114741256469e-03  -5.5548666148017652e-04 3.6524027774650853e-03 -8.3551127226986228e-03  -2.8939143624329573e-04 4.1662575690477642e-03 -9.5716701532287309e-03  -1.5247097395492423e-04 4.4256277166855665e-03 -1.0140177540683162e-02  -1.1991884607136259e-04 4.6089529840385394e-03 -1.0598074483302043e-02  -3.6933265492023938e-06 4.7993350551773419e-03 -1.1160146649354495e-02  4.3669512743110914e-04 5.2842918960079545e-03 -1.1462260151831090e-02  0.0000000000000000e+00 0.0000000000000000e+00 0.0000000000000000e+00  8.5586018513500407e-04 -1.5635462826638072e-03 2.0026853327703088e-03  7.7455424679753629e-04 -2.9702505846586889e-03 4.4442650029699960e-03  1.7139601434802771e-04 -3.5890455409634046e-03 5.8087882383826336e-03  -6.0172507552012065e-04 -3.0179071434549721e-03 5.1103422592123733e-03  -1.0359302350197036e-03 -1.5496210697740201e-03 2.4812237743430739e-03  -7.6305852364412887e-04 -1.9596516812091111e-04 -2.7402210222714012e-04  -1.6544504933339489e-04 2.2907452814699392e-04 -9.5175051822429042e-04  -4.7482572935259257e-05 1.8790544570386765e-04 -3.6366557047657765e-04  -2.6546530793923319e-04 4.8311865915678698e-04 -9.8825199483927768e-04  -2.3630418940489225e-04 8.6569098615321314e-04 -1.7794560522513729e-03  -2.5339990596703812e-04 1.1997242063320405e-03 -2.0396986305613964e-03  -4.1842971345845643e-04 1.7935313142817147e-03 -3.1068931951379344e-03  -3.6861898518759657e-04 2.4104420535468658e-03 -4.3274290602825340e-03  -1.9968560024831661e-04 2.7772979284482074e-03 -4.9687888792677385e-03  -1.1044976112793112e-04 2.9577117327944965e-03 -5.2797111734944205e-03  -9.5559210552706940e-05 3.0858467270311989e-03 -5.5444134303885761e-03  -7.5242576494473167e-05 3.2133957359488322e-03 -5.8948825392182011e-03  5.1824027857664211e-04 3.8266322504115790e-03 -6.2764275975371944e-03  0.0000000000000000e+00 0.0000000000000000e+00 0.0000000000000000e+00  -4.2250081234507631e-06 4.1019036651366794e-07 -5.9739847488681851e-06  -8.3299545728775293e-06 1.3521783117769670e-06 -2.3446234317278724e-05  -1.2272924227178336e-05 2.8224921842907573e-06 -5.2356937463812719e-05  -1.5978714416183599e-05 4.7715092070193319e-06 -9.2135295721049954e-05  -1.9382958795373122e-05 7.1544722507472954e-06 -1.4200474915435689e-04  -2.2444942676543796e-05 9.9229256773027857e-06 -2.0101964249922367e-04  -2.5157572746454528e-05 1.3027450639621628e-05 -2.6816930347799915e-04  -2.7530852647131301e-05 1.6421199570667349e-05 -3.4247783814109005e-04  -2.9569213638616056e-05 2.0061290203182519e-05 -4.2300542437637237e-04  -3.1275415161294267e-05 2.3907233330065626e-05 -5.0880293768637802e-04  -3.2660925703217438e-05 2.7920229705910069e-05 -5.9894048304308899e-04  -3.3740961680339670e-05 3.2064188328674023e-05 -6.9253517848364343e-04  -3.4536311977252174e-05 3.6306231750874453e-05 -7.8874351539156510e-04  -3.5080531780408712e-05 4.0617348722710323e-05 -8.8679659521250182e-04  -3.5417095689436975e-05 4.4973530893257183e-05 -9.8604190329431500e-04  -3.5593778223055553e-05 4.9356381604356099e-05 -1.0859592837902496e-03  -3.5660981589922755e-05 5.3753374800867864e-05 -1.1861669881540879e-03  -3.5673264936453136e-05 5.8158214356787157e-05 -1.2864306397783929e-03  0.0000000000000000e+00 0.0000000000000000e+00 0.0000000000000000e+00  -3.9984205173220372e-06 6.5212937804435427e-07 -5.9103366721070650e-06  -8.2549241780058629e-06 1.5887388014731310e-06 -2.3355510237505542e-05  -1.2347069834093166e-05 3.0480643587559813e-06 -5.2257646755896463e-05  -1.6196956956121643e-05 4.9801062398636647e-06 -9.2029259108851856e-05  -1.9738759497267862e-05 7.3422790246505528e-06 -1.4189225362484827e-04  -2.2927687874420296e-05 1.0088932271731666e-05 -2.0090033033353725e-04  -2.5753684773190221e-05 1.3172864432082518e-05 -2.6804348966016223e-04  -2.8227719128843611e-05 1.6546964330665241e-05 -3.4234696207952812e-04  -3.0356404915199439e-05 2.0167272300018696e-05 -4.2287109148955726e-04  -3.2142004238142685e-05 2.3993825317002374e-05 -5.0866618096211895e-04  -3.3595714447611341e-05 2.7988371498669904e-05 -5.9880227211858087e-04  -3.4733707368432290e-05 3.2114758555631968e-05 -6.9239653144597009e-04  -3.5576430325148466e-05 3.6340881523891048e-05 -7.8860519434768037e-04  -3.6157141482173660e-05 4.0638634360216015e-05 -8.8665918526533772e-04  -3.6520119371507778e-05 4.4984313879844833e-05 -9.8590567093982478e-04  -3.6714405976134073e-05 4.9359573753275528e-05 -1.0858238922063067e-03  -3.6791619132864518e-05 5.3751997466975798e-05 -1.1860313034417866e-03  -3.6807051875693210e-05 5.8155198021356956e-05 -1.2862927137955095e-03  0.0000000000000000e+00 0.0000000000000000e+00 0.0000000000000000e+00  9.1699940725511022e-04 1.7015536170068718e-03 2.7819840878166692e-03  7.1260350585558075e-04 3.2198556304302100e-03 5.3261766986358611e-03  4.9354003683086607e-05 3.9545647681134884e-03 6.3715154430299247e-03  -6.9608877528193227e-04 3.4530547351437849e-03 5.1544220444888029e-03  -1.0150263916591591e-03 1.9640591361978748e-03 2.2056499564232185e-03  -6.3609189463275002e-04 4.7197800675799739e-04 -4.2630226014781441e-04  -8.7691136637730560e-05 -1.0048774832071612e-04 -8.0919397067358311e-04  -9.2215305694462904e-05 -6.8939247263549193e-05 -2.5550388307074898e-04  -2.7834195397777008e-04 -3.4903597675387752e-04 -1.0878496815028174e-03  -2.1245229033851673e-04 -7.9016377080515395e-04 -1.9152849207371707e-03  -2.7303241910061411e-04 -1.1244293687743307e-03 -2.1997618777618486e-03  -4.2696994206695876e-04 -1.6984295957843572e-03 -3.3312288181343627e-03  -3.8883845855992389e-04 -2.4050488728673924e-03 -4.6124865320834631e-03  -2.6733998605207540e-04 -2.9361721949451116e-03 -5.4100485680629168e-03  -1.9826719712421535e-04 -3.2919273450975704e-03 -5.9502719872064321e-03  -1.7436163506682139e-04 -3.5964568857858063e-03 -6.4663412953562807e-03  -6.8643494789819251e-05 -3.9558477333296871e-03 -7.0199456458937843e-03  3.7074249232215388e-04 -4.6066627066302691e-03 -7.0692983206527985e-03  0.0000000000000000e+00 0.0000000000000000e+00 0.0000000000000000e+00  1.4634518398626386e-03 2.1956592781782283e-03 5.4059166523768932e-03  1.1867762894347466e-03 4.3550587623397740e-03 1.0411000374923455e-02  1.3651393887132945e-04 5.4927402156689622e-03 1.2591585745126154e-02  -1.0732998746407155e-03 4.9530722298391722e-03 1.0445987298120294e-02  -1.6320926925635609e-03 2.9897400564474841e-03 4.9159839591648435e-03  -1.0632667943446883e-03 8.8234314772919385e-04 -2.0739729547405688e-04  -1.4061211947452443e-04 -5.2604318210447453e-05 -1.2103304519405949e-03  -9.2567788388625877e-05 -8.3057952546223879e-05 -2.2499323646709129e-04  -4.3239223323740473e-04 -4.4340275640054454e-04 -1.6534554398103113e-03  -3.3359501563427876e-04 -1.0597972609630289e-03 -3.2459471796811028e-03  -3.9200177161351386e-04 -1.5475963619269221e-03 -3.8304410157506551e-03  -6.5948198042228769e-04 -2.3301194754274863e-03 -5.9067590518477337e-03  -6.1329268284750042e-04 -3.3181782679033035e-03 -8.3441059854705499e-03  -4.1110736255011278e-04 -4.0930848013712622e-03 -9.8955652684088301e-03  -2.9249248456051779e-04 -4.6205527863778656e-03 -1.0926958482825459e-02  -2.3999650591973007e-04 -5.0675715261724024e-03 -1.1874654958773862e-02  -7.5004138244057236e-05 -5.6102760073245255e-03 -1.2875799928839235e-02  2.5651362438033605e-04 -6.6301142746415321e-03 -1.3021851157736927e-02  0.0000000000000000e+00 0.0000000000000000e+00 0.0000000000000000e+00  1.5146252542360033e-03 2.1485510491903747e-03 7.3495869162346463e-03  1.3148366555284490e-03 4.4985640440161033e-03 1.4249771605848756e-02  2.6669438407462144e-04 5.8156268934126476e-03 1.7419311962493016e-02  -1.0192620977565623e-03 5.3752522642439354e-03 1.4781273638551416e-02  -1.7108977082104062e-03 3.3695636879947817e-03 7.5029818122807658e-03  -1.2168026240778620e-03 1.1019738850467113e-03 4.8710840994833264e-04  -1.8050730103323141e-04 1.5697543905248191e-05 -1.3359546692913518e-03  -1.0465716206914863e-05 -6.2598013996182386e-05 -2.9449722331474426e-04  -4.4327039106688390e-04 -4.3267784888282484e-04 -2.0597157772896950e-03  -3.6573673772353625e-04 -1.0830247144830083e-03 -4.2533656678307398e-03  -3.4663111481504893e-04 -1.6014513140067081e-03 -5.2237758962280240e-03  -6.6377601475556324e-04 -2.4196713196244159e-03 -7.9876298968063909e-03  -6.5320697979394089e-04 -3.4711679499895439e-03 -1.1319992287157651e-02  -4.2979013314144838e-04 -4.3175253960221430e-03 -1.3551212268906973e-02  -2.9150495011307610e-04 -4.9011315140610034e-03 -1.5051048539842236e-02  -2.1900774969381984e-04 -5.3952623996348899e-03 -1.6387314356062374e-02  4.6847536908311673e-08 -5.9796426104815189e-03 -1.7791593573387075e-02  2.8140246142311395e-04 -7.1433284749233784e-03 -1.8399581308903835e-02  0.0000000000000000e+00 0.0000000000000000e+00 0.0000000000000000e+00  5.8093864140630700e-04 -1.1524684656248221e-03 7.0153055240069779e-03  5.7524540191354482e-04 -2.1452961991987544e-03 1.4025071786633682e-02  1.4065537447047760e-04 -2.4902893206248896e-03 1.7306629065757053e-02  -4.3663707031019785e-04 -2.0017880271381168e-03 1.4639150248246462e-02  -7.7068334329170613e-04 -9.5289532105382669e-04 7.1007409500679439e-03  -5.7581065782434616e-04 -6.1928515114965298e-05 -7.3744573967489467e-05  -1.5338080008244387e-04 1.7907443025936350e-04 -1.7583555994880994e-03  -8.2378823411754108e-05 1.5478113455328116e-04 -6.9787062722434479e-04  -1.8835871690214977e-04 3.8255180465125417e-04 -2.4761493983305430e-03  -1.3196702817737101e-04 6.5818231321375712e-04 -4.4775756571035401e-03  -1.5933583738770936e-04 9.0677841475314330e-04 -5.5787296955289193e-03  -2.7128179720635644e-04 1.3274606551127812e-03 -8.6347717001530912e-03  -2.3494706423550133e-04 1.7435794812963022e-03 -1.1824906836140353e-02  -1.1904836992765137e-04 1.9796098988257367e-03 -1.3519096515351377e-02  -5.1520341569495671e-05 2.0915729747812252e-03 -1.4328907548716267e-02  -1.0830636195094665e-05 2.1798116169296972e-03 -1.4952995979999969e-02  1.4467404652682885e-04 2.3240138994089581e-03 -1.5614365670999624e-02  4.1007067040190381e-04 2.6824414831563659e-03 -1.5651849179662516e-02  0.0000000000000000e+00 0.0000000000000000e+00 0.0000000000000000e+00  6.3354716203197468e-04 -1.0138629071548286e-03 4.4592987978320803e-03  6.1572533416409409e-04 -1.8791415182289257e-03 9.4768363873887033e-03  1.6463719934487121e-04 -2.2108518957543316e-03 1.2086107964157383e-02  -4.3404754942213920e-04 -1.8118822830510374e-03 1.0465895986247781e-02  -7.9443231463218313e-04 -9.0320513156622452e-04 5.1095298645362662e-03  -6.1685494471560480e-04 -1.0329872938568634e-04 -2.5997849073090541e-04  -1.6879325510344012e-04 1.4342363691296586e-04 -1.5123167071533542e-03  -5.9929666488167595e-05 1.3885208575271037e-04 -4.6183306826065286e-04  -1.9293556710823844e-04 3.3292457378029808e-04 -1.6860600001512430e-03  -1.5712080166544224e-04 5.7847129639050090e-04 -3.1683965169256975e-03  -1.6530780560410335e-04 8.0551717238228949e-04 -3.7662968393753072e-03  -2.8591091225627628e-04 1.1760729837550850e-03 -5.8929617162936845e-03  -2.5831107954141778e-04 1.5488696724822038e-03 -8.2384042813889221e-03  -1.3338923209996295e-04 1.7696628093382546e-03 -9.4532170463695088e-03  -5.9948002035646224e-05 1.8776458696207832e-03 -1.0011049493544736e-02  -3.3866819563956384e-05 1.9554370996439849e-03 -1.0460002101403505e-02  5.5347857396580495e-05 2.0696941799644058e-03 -1.1022079829720833e-02  3.7885923176404025e-04 2.4444293995911554e-03 -1.1360500051904197e-02  0.0000000000000000e+00 0.0000000000000000e+00 0.0000000000000000e+00  4.1833108542562114e-04 -6.2098061602927342e-04 1.8042089449142706e-03  4.0712497901394687e-04 -1.1572871404014445e-03 4.1649186133143794e-03  1.1369442621959682e-04 -1.3860735964889819e-03 5.5173864645583310e-03  -2.7779554866771169e-04 -1.1594139777289974e-03 4.8898594015272193e-03  -5.1947887118019914e-04 -5.9839975758637059e-04 2.3629234469338904e-03  -4.1513076602011436e-04 -8.4408670774923611e-05 -3.2890594643916542e-04  -1.2081784873051633e-04 8.8250686955110991e-05 -9.7966180285036773e-04  -3.3914111190554493e-05 8.9598108163555876e-05 -3.4378080069702791e-04  -1.2823867126358763e-04 2.0784232407498288e-04 -9.2056496284718611e-04  -1.1707220149592619e-04 3.6194272404157910e-04 -1.6908167659724803e-03  -1.1447393481836517e-04 5.0431270542764613e-04 -1.9031707478320307e-03  -1.9336811358324770e-04 7.3673105139400647e-04 -2.9068484040715345e-03  -1.8072298098972171e-04 9.7509175207196881e-04 -4.0890051538452045e-03  -9.7588437704017035e-05 1.1209477653115073e-03 -4.7016483311587247e-03  -4.8078183908855161e-05 1.1946250432732014e-03 -4.9880828255735041e-03  -3.7251758911181673e-05 1.2466171529303684e-03 -5.2363740360847361e-03  -1.7108434162409969e-05 1.3053234479356499e-03 -5.5776523969487029e-03  3.6244529785285309e-04 1.6205993128539436e-03 -5.9647310652908986e-03  0.0000000000000000e+00 0.0000000000000000e+00 0.0000000000000000e+00  -1.9818806729463698e-06 3.9020122526857248e-07 -5.7958936004783495e-06  -4.0205202217129657e-06 1.3284040843107290e-06 -2.3271819898407689e-05  -5.9660555709090636e-06 2.7903096399918821e-06 -5.2190029069336978e-05  -7.7979401433451777e-06 4.7316365312875001e-06 -9.1979102175306703e-05  -9.4846362857634622e-06 7.1062212490358982e-06 -1.4186166325929559e-04  -1.1004589674509991e-05 9.8659454265387071e-06 -2.0089110436632171e-04  -1.2352646538855883e-05 1.2962447388381967e-05 -2.6805557766775462e-04  -1.3533342537112043e-05 1.6349474357794580e-05 -3.4237863767655111e-04  -1.4549320540819276e-05 1.9983829137965024e-05 -4.2292058191770144e-04  -1.5401720986624536e-05 2.3824823566283208e-05 -5.0873222642989601e-04  -1.6095786511096486e-05 2.7833752386537383e-05 -5.9888335300758359e-04  -1.6639003835530188e-05 3.1974433330263757e-05 -6.9249091173640928e-04  -1.7041218810191576e-05 3.6214017421214871e-05 -7.8871110087504041e-04  -1.7318349310329471e-05 4.0523589937562049e-05 -8.8677451975193702e-04  -1.7491515838620763e-05 4.4878943400043299e-05 -9.8602828049397105e-04  -1.7584160735692541e-05 4.9261229181586159e-05 -1.0859520345710529e-03  -1.7620935185966614e-05 5.3657426169187713e-05 -1.1861638712500472e-03  -1.7628039839563853e-05 5.8060563770626804e-05 -1.2864283053942809e-03  0.0000000000000000e+00 0.0000000000000000e+00 0.0000000000000000e+00  -2.0351705197791902e-06 5.6209185081930751e-07 -5.7009430985909115e-06  -4.2319601747586985e-06 1.4811317302691028e-06 -2.3167251390533367e-05  -6.3111310560043703e-06 2.9347274840213679e-06 -5.2077696600592682e-05  -8.2670742469389877e-06 4.8656619065626539e-06 -9.1860077367460127e-05  -1.0067216518894504e-05 7.2276673690099314e-06 -1.4173637035953083e-04  -1.1688747163087680e-05 9.9738924417163090e-06 -2.0075965171061387e-04  -1.3125870605751991e-05 1.3057239259777742e-05 -2.6791861537427754e-04  -1.4383789271250056e-05 1.6431622238006484e-05 -3.4223757034206287e-04  -1.5466268485133598e-05 2.0053402851504758e-05 -4.2277690138741087e-04  -1.6374802661903583e-05 2.3882043249974460e-05 -5.0858705722589060e-04  -1.7114969849992440e-05 2.7879167630880943e-05 -5.9873770556568228e-04  -1.7695064211307969e-05 3.2008665073985111e-05 -6.9234576699667323e-04  -1.8125565866353199e-05 3.6238058498521207e-05 -7.8856730263783049e-04  -1.8423114178204468e-05 4.0538955354553548e-05 -8.8663272690397965e-04  -1.8609969537627050e-05 4.4887417234130809e-05 -9.8588874075209755e-04  -1.8710967249716555e-05 4.9264674601129001e-05 -1.0858143564212905e-03  -1.8752206983086723e-05 5.3657723983739297e-05 -1.1860269154294874e-03  -1.8761091675953970e-05 5.8059421801766286e-05 -1.2862907403670962e-03  0.0000000000000000e+00 0.0000000000000000e+00 0.0000000000000000e+00  4.6723310162678712e-04 6.0819049138082469e-04 2.4925260043989639e-03  4.0571890755067725e-04 1.1362841606410345e-03 4.7726001542048990e-03  8.3616879825222721e-05 1.4078222363292628e-03 5.6578657141027437e-03  -3.1199784089560044e-04 1.2474542534355146e-03 4.4827241476944309e-03  -5.2361429806836593e-04 7.3361480456488688e-04 1.7554034061227960e-03  -3.7854059554637916e-04 2.0487901903810639e-04 -6.1812138132721840e-04  -8.4746272039383483e-05 -1.0257850630436509e-05 -8.4548021447636420e-04  -3.6913019013940308e-05 -4.7996405471952466e-06 -2.3392332987341700e-04  -1.3312345911440721e-04 -9.8066267960896859e-05 -1.0189296029355635e-03  -1.1133608805164525e-04 -2.5176089860040959e-04 -1.7794087701825483e-03  -1.2478323593119578e-04 -3.7146058213828061e-04 -1.9807720827400058e-03  -2.0676526021852157e-04 -5.7246685431936188e-04 -3.0051356653209502e-03  -2.0185073556452644e-04 -8.2086105357789796e-04 -4.1626243238701436e-03  -1.3912079954396333e-04 -1.0080193953080697e-03 -4.8483462454074122e-03  -9.4865387846415215e-05 -1.1309366838035775e-03 -5.3049460120964537e-03  -7.5470732584416762e-05 -1.2373157199632113e-03 -5.7528009042203693e-03  -3.0824696018568547e-05 -1.3873889684946504e-03 -6.2311786815110312e-03  2.8821639646020873e-04 -1.6675549034925077e-03 -6.0560333623168369e-03  0.0000000000000000e+00 0.0000000000000000e+00 0.0000000000000000e+00  6.7763767539795136e-04 9.6700562822204063e-04 5.2325158051311754e-03  6.2769881506781000e-04 1.9486987554543720e-03 1.0183787516329285e-02  1.4796406319645850e-04 2.4922685776883231e-03 1.2313642850795389e-02  -4.5213995940428931e-04 2.2835405277669544e-03 1.0179107351287461e-02  -7.8673518773455045e-04 1.4164098032146595e-03 4.7090214640651716e-03  -5.7969577952434381e-04 4.5666639234537705e-04 -3.4632817802507143e-04  -1.2213071572711215e-04 1.1056848113000225e-05 -1.2825153016959858e-03  -3.3418251244328115e-05 -1.3045764852521503e-05 -2.2282169159763886e-04  -1.9073528633646103e-04 -1.6899755450340432e-04 -1.6128309791205086e-03  -1.5676622731463440e-04 -4.4241266414765234e-04 -3.1940451637258371e