<?xml version="1.0"?>
<VTKFile type="UnstructuredGrid"  version="0.1"  >
<UnstructuredGrid>
<Piece  NumberOfPoints="760" NumberOfCells="3024">
<Points>
<DataArray  type="Float64"  NumberOfComponents="3"  format="ascii">0 0 0  0.05555555555555555 0 0  0.1111111111111111 0 0  0.1666666666666667 0 0  0.2222222222222222 0 0  0.2777777777777778 0 0  0.3333333333333333 0 0  0.3888888888888889 0 0  0.4444444444444444 0 0  0.5 0 0  0.5555555555555556 0 0  0.6111111111111112 0 0  0.6666666666666666 0 0  0.7222222222222222 0 0  0.7777777777777778 0 0  0.8333333333333334 0 0  0.8888888888888888 0 0  0.9444444444444444 0 0  1 0 0  0 0.01428571428571429 0  0.05555555555555555 0.01428571428571429 0  0.1111111111111111 0.01428571428571429 0  0.1666666666666667 0.01428571428571429 0  0.2222222222222222 0.01428571428571429 0  0.2777777777777778 0.01428571428571429 0  0.3333333333333333 0.01428571428571429 0  0.3888888888888889 0.01428571428571429 0  0.4444444444444444 0.01428571428571429 0  0.5 0.01428571428571429 0  0.5555555555555556 0.01428571428571429 0  0.6111111111111112 0.01428571428571429 0  0.6666666666666666 0.01428571428571429 0  0.7222222222222222 0.01428571428571429 0  0.7777777777777778 0.01428571428571429 0  0.8333333333333334 0.01428571428571429 0  0.8888888888888888 0.01428571428571429 0  0.9444444444444444 0.01428571428571429 0  1 0.01428571428571429 0  0 0.02857142857142857 0  0.05555555555555555 0.02857142857142857 0  0.1111111111111111 0.02857142857142857 0  0.1666666666666667 0.02857142857142857 0  0.2222222222222222 0.02857142857142857 0  0.2777777777777778 0.02857142857142857 0  0.3333333333333333 0.02857142857142857 0  0.3888888888888889 0.02857142857142857 0  0.4444444444444444 0.02857142857142857 0  0.5 0.02857142857142857 0  0.5555555555555556 0.02857142857142857 0  0.6111111111111112 0.02857142857142857 0  0.6666666666666666 0.02857142857142857 0  0.7222222222222222 0.02857142857142857 0  0.7777777777777778 0.02857142857142857 0  0.8333333333333334 0.02857142857142857 0  0.8888888888888888 0.02857142857142857 0  0.9444444444444444 0.02857142857142857 0  1 0.02857142857142857 0  0 0.04285714285714286 0  0.05555555555555555 0.04285714285714286 0  0.1111111111111111 0.04285714285714286 0  0.1666666666666667 0.04285714285714286 0  0.2222222222222222 0.04285714285714286 0  0.2777777777777778 0.04285714285714286 0  0.3333333333333333 0.04285714285714286 0  0.3888888888888889 0.04285714285714286 0  0.4444444444444444 0.04285714285714286 0  0.5 0.04285714285714286 0  0.5555555555555556 0.04285714285714286 0  0.6111111111111112 0.04285714285714286 0  0.6666666666666666 0.04285714285714286 0  0.7222222222222222 0.04285714285714286 0  0.7777777777777778 0.04285714285714286 0  0.8333333333333334 0.04285714285714286 0  0.8888888888888888 0.04285714285714286 0  0.9444444444444444 0.04285714285714286 0  1 0.04285714285714286 0  0 0.05714285714285715 0  0.05555555555555555 0.05714285714285715 0  0.1111111111111111 0.05714285714285715 0  0.1666666666666667 0.05714285714285715 0  0.2222222222222222 0.05714285714285715 0  0.2777777777777778 0.05714285714285715 0  0.3333333333333333 0.05714285714285715 0  0.3888888888888889 0.05714285714285715 0  0.4444444444444444 0.05714285714285715 0  0.5 0.05714285714285715 0  0.5555555555555556 0.05714285714285715 0  0.6111111111111112 0.05714285714285715 0  0.6666666666666666 0.05714285714285715 0  0.7222222222222222 0.05714285714285715 0  0.7777777777777778 0.05714285714285715 0  0.8333333333333334 0.05714285714285715 0  0.8888888888888888 0.05714285714285715 0  0.9444444444444444 0.05714285714285715 0  1 0.05714285714285715 0  0 0.07142857142857142 0  0.05555555555555555 0.07142857142857142 0  0.1111111111111111 0.07142857142857142 0  0.1666666666666667 0.07142857142857142 0  0.2222222222222222 0.07142857142857142 0  0.2777777777777778 0.07142857142857142 0  0.3333333333333333 0.07142857142857142 0  0.3888888888888889 0.07142857142857142 0  0.4444444444444444 0.07142857142857142 0  0.5 0.07142857142857142 0  0.5555555555555556 0.07142857142857142 0  0.6111111111111112 0.07142857142857142 0  0.6666666666666666 0.07142857142857142 0  0.7222222222222222 0.07142857142857142 0  0.7777777777777778 0.07142857142857142 0  0.8333333333333334 0.07142857142857142 0  0.8888888888888888 0.07142857142857142 0  0.9444444444444444 0.07142857142857142 0  1 0.07142857142857142 0  0 0.08571428571428573 0  0.05555555555555555 0.08571428571428573 0  0.1111111111111111 0.08571428571428573 0  0.1666666666666667 0.08571428571428573 0  0.2222222222222222 0.08571428571428573 0  0.2777777777777778 0.08571428571428573 0  0.3333333333333333 0.08571428571428573 0  0.3888888888888889 0.08571428571428573 0  0.4444444444444444 0.08571428571428573 0  0.5 0.08571428571428573 0  0.5555555555555556 0.08571428571428573 0  0.6111111111111112 0.08571428571428573 0  0.6666666666666666 0.08571428571428573 0  0.7222222222222222 0.08571428571428573 0  0.7777777777777778 0.08571428571428573 0  0.8333333333333334 0.08571428571428573 0  0.8888888888888888 0.08571428571428573 0  0.9444444444444444 0.08571428571428573 0  1 0.08571428571428573 0  0 0.1 0  0.05555555555555555 0.1 0  0.1111111111111111 0.1 0  0.1666666666666667 0.1 0  0.2222222222222222 0.1 0  0.2777777777777778 0.1 0  0.3333333333333333 0.1 0  0.3888888888888889 0.1 0  0.4444444444444444 0.1 0  0.5 0.1 0  0.5555555555555556 0.1 0  0.6111111111111112 0.1 0  0.6666666666666666 0.1 0  0.7222222222222222 0.1 0  0.7777777777777778 0.1 0  0.8333333333333334 0.1 0  0.8888888888888888 0.1 0  0.9444444444444444 0.1 0  1 0.1 0  0 0 0.01  0.05555555555555555 0 0.01  0.1111111111111111 0 0.01  0.1666666666666667 0 0.01  0.2222222222222222 0 0.01  0.2777777777777778 0 0.01  0.3333333333333333 0 0.01  0.3888888888888889 0 0.01  0.4444444444444444 0 0.01  0.5 0 0.01  0.5555555555555556 0 0.01  0.6111111111111112 0 0.01  0.6666666666666666 0 0.01  0.7222222222222222 0 0.01  0.7777777777777778 0 0.01  0.8333333333333334 0 0.01  0.8888888888888888 0 0.01  0.9444444444444444 0 0.01  1 0 0.01  0 0.01428571428571429 0.01  0.05555555555555555 0.01428571428571429 0.01  0.1111111111111111 0.01428571428571429 0.01  0.1666666666666667 0.01428571428571429 0.01  0.2222222222222222 0.01428571428571429 0.01  0.2777777777777778 0.01428571428571429 0.01  0.3333333333333333 0.01428571428571429 0.01  0.3888888888888889 0.01428571428571429 0.01  0.4444444444444444 0.01428571428571429 0.01  0.5 0.01428571428571429 0.01  0.5555555555555556 0.01428571428571429 0.01  0.6111111111111112 0.01428571428571429 0.01  0.6666666666666666 0.01428571428571429 0.01  0.7222222222222222 0.01428571428571429 0.01  0.7777777777777778 0.01428571428571429 0.01  0.8333333333333334 0.01428571428571429 0.01  0.8888888888888888 0.01428571428571429 0.01  0.9444444444444444 0.01428571428571429 0.01  1 0.01428571428571429 0.01  0 0.02857142857142857 0.01  0.05555555555555555 0.02857142857142857 0.01  0.1111111111111111 0.02857142857142857 0.01  0.1666666666666667 0.02857142857142857 0.01  0.2222222222222222 0.02857142857142857 0.01  0.2777777777777778 0.02857142857142857 0.01  0.3333333333333333 0.02857142857142857 0.01  0.3888888888888889 0.02857142857142857 0.01  0.4444444444444444 0.02857142857142857 0.01  0.5 0.02857142857142857 0.01  0.5555555555555556 0.02857142857142857 0.01  0.6111111111111112 0.02857142857142857 0.01  0.6666666666666666 0.02857142857142857 0.01  0.7222222222222222 0.02857142857142857 0.01  0.7777777777777778 0.02857142857142857 0.01  0.8333333333333334 0.02857142857142857 0.01  0.8888888888888888 0.02857142857142857 0.01  0.9444444444444444 0.02857142857142857 0.01  1 0.02857142857142857 0.01  0 0.04285714285714286 0.01  0.05555555555555555 0.04285714285714286 0.01  0.1111111111111111 0.04285714285714286 0.01  0.1666666666666667 0.04285714285714286 0.01  0.2222222222222222 0.04285714285714286 0.01  0.2777777777777778 0.04285714285714286 0.01  0.3333333333333333 0.04285714285714286 0.01  0.3888888888888889 0.04285714285714286 0.01  0.4444444444444444 0.04285714285714286 0.01  0.5 0.04285714285714286 0.01  0.5555555555555556 0.04285714285714286 0.01  0.6111111111111112 0.04285714285714286 0.01  0.6666666666666666 0.04285714285714286 0.01  0.7222222222222222 0.04285714285714286 0.01  0.7777777777777778 0.04285714285714286 0.01  0.8333333333333334 0.04285714285714286 0.01  0.8888888888888888 0.04285714285714286 0.01  0.9444444444444444 0.04285714285714286 0.01  1 0.04285714285714286 0.01  0 0.05714285714285715 0.01  0.05555555555555555 0.05714285714285715 0.01  0.1111111111111111 0.05714285714285715 0.01  0.1666666666666667 0.05714285714285715 0.01  0.2222222222222222 0.05714285714285715 0.01  0.2777777777777778 0.05714285714285715 0.01  0.3333333333333333 0.05714285714285715 0.01  0.3888888888888889 0.05714285714285715 0.01  0.4444444444444444 0.05714285714285715 0.01  0.5 0.05714285714285715 0.01  0.5555555555555556 0.05714285714285715 0.01  0.6111111111111112 0.05714285714285715 0.01  0.6666666666666666 0.05714285714285715 0.01  0.7222222222222222 0.05714285714285715 0.01  0.7777777777777778 0.05714285714285715 0.01  0.8333333333333334 0.05714285714285715 0.01  0.8888888888888888 0.05714285714285715 0.01  0.9444444444444444 0.05714285714285715 0.01  1 0.05714285714285715 0.01  0 0.07142857142857142 0.01  0.05555555555555555 0.07142857142857142 0.01  0.1111111111111111 0.07142857142857142 0.01  0.1666666666666667 0.07142857142857142 0.01  0.2222222222222222 0.07142857142857142 0.01  0.2777777777777778 0.07142857142857142 0.01  0.3333333333333333 0.07142857142857142 0.01  0.3888888888888889 0.07142857142857142 0.01  0.4444444444444444 0.07142857142857142 0.01  0.5 0.07142857142857142 0.01  0.5555555555555556 0.07142857142857142 0.01  0.6111111111111112 0.07142857142857142 0.01  0.6666666666666666 0.07142857142857142 0.01  0.7222222222222222 0.07142857142857142 0.01  0.7777777777777778 0.07142857142857142 0.01  0.8333333333333334 0.07142857142857142 0.01  0.8888888888888888 0.07142857142857142 0.01  
[...]
<PointData  Vectors="f_36"> 
<DataArray  type="Float64"  Name="f_36"  NumberOfComponents="3" format="ascii">0.0000000000000000e+00 0.0000000000000000e+00 0.0000000000000000e+00  -2.7073970755398364e-03 5.3875326938640136e-03 -1.3970526271335191e-02  -1.7787418916051659e-03 9.1155038062499631e-03 -2.6433440314035009e-02  -5.7170254134734748e-04 1.0475773661933689e-02 -3.0072066443435214e-02  -2.4243434859900901e-04 1.0903867739856908e-02 -3.1315334231397915e-02  -1.4547071345801920e-04 1.1045285473899798e-02 -3.1900363376284768e-02  -1.3089067052834865e-04 1.1110496829942114e-02 -3.2331445523156074e-02  -1.3536980464602170e-04 1.1158035913866382e-02 -3.2758997908190396e-02  -1.4335508881911825e-04 1.1202080218966872e-02 -3.3206743126733523e-02  -1.5100748714219162e-04 1.1246761703086756e-02 -3.3679811857960186e-02  -1.5745542496146909e-04 1.1292732881734107e-02 -3.4175196941754214e-02  -1.6279193312092132e-04 1.1340362710946687e-02 -3.4688741908114586e-02  -1.6705391284010422e-04 1.1390252075686219e-02 -3.5219593132219007e-02  -1.7271169970855545e-04 1.1447832683634928e-02 -3.5760698922731274e-02  -1.8269469856774047e-04 1.1526403161292836e-02 -3.6361270879491883e-02  -2.5364786897732474e-04 1.1674277665533929e-02 -3.6977259912309032e-02  -6.2725758234654923e-04 1.2197387271409508e-02 -3.8370085962595148e-02  7.2779956802195764e-06 1.2982611302868142e-02 -4.1892820485697688e-02  1.0605064235913910e-03 1.3673232094911784e-02 -4.0947793383651385e-02  0.0000000000000000e+00 0.0000000000000000e+00 0.0000000000000000e+00  -2.6740879297436262e-03 4.5700198111198959e-03 -8.9751843446097389e-03  -1.9230924643173651e-03 8.0952509130378242e-03 -1.8129803048967302e-02  -5.9356144272453254e-04 9.5006072919198836e-03 -2.0597014364359126e-02  -2.3744824396522844e-04 9.9487983776374873e-03 -2.1390686918756490e-02  -1.4232989454702035e-04 1.0106136974763306e-02 -2.1852265054365914e-02  -1.2525122447372034e-04 1.0180566496549519e-02 -2.2221171209655891e-02  -1.2986353161168547e-04 1.0237391285184827e-02 -2.2608210349035405e-02  -1.3746856318963308e-04 1.0291154159841106e-02 -2.3018259651496349e-02  -1.4497481444331048e-04 1.0346197340870460e-02 -2.3453645338172163e-02  -1.5131276392419779e-04 1.0403094250684045e-02 -2.3910311301576902e-02  -1.5648626392705245e-04 1.0461992916860839e-02 -2.4384086483991672e-02  -1.6089144547812997e-04 1.0523065353840403e-02 -2.4872641483118789e-02  -1.6563592516297539e-04 1.0589868230023638e-02 -2.5367608675174694e-02  -1.7779445689736383e-04 1.0674320892767550e-02 -2.5892607518108152e-02  -2.2823087633904186e-04 1.0811087567163122e-02 -2.6406245299359851e-02  -5.6972149872253455e-04 1.1268863175709153e-02 -2.7295269117682732e-02  -2.5693295864075112e-04 1.2027916915562598e-02 -3.0303365574363354e-02  1.1581594420745835e-03 1.3043764975561083e-02 -3.0197460162774838e-02  0.0000000000000000e+00 0.0000000000000000e+00 0.0000000000000000e+00  -1.6659799734222254e-03 2.8792792432003195e-03 -4.1450338364715147e-03  -1.2957291596876221e-03 5.3088124158368029e-03 -8.9041860912806980e-03  -4.0154447274496887e-04 6.3190797178554834e-03 -1.0125259322904897e-02  -1.6342112405560519e-04 6.6285716974742448e-03 -1.0497881770504935e-02  -1.1276657917483889e-04 6.7464418567904924e-03 -1.0806914609930225e-02  -1.0320212347136107e-04 6.8101620876323170e-03 -1.1085073938819330e-02  -1.0891777452943377e-04 6.8641896029436366e-03 -1.1388006632139083e-02  -1.1564428230186386e-04 6.9181374916476293e-03 -1.1712582008219168e-02  -1.2206714303609709e-04 6.9743600697097915e-03 -1.2058051432372997e-02  -1.2739370343587051e-04 7.0330103544932092e-03 -1.2420636913280016e-02  -1.3168350797971486e-04 7.0938409874536533e-03 -1.2796944789718840e-02  -1.3516120319604657e-04 7.1566388801735797e-03 -1.3184101424185453e-02  -1.3843836151921089e-04 7.2219582933767167e-03 -1.3577462716413300e-02  -1.4652928203879581e-04 7.2968387761524998e-03 -1.3978223215830789e-02  -1.7651336818882824e-04 7.3943980822940032e-03 -1.4379192710930860e-02  -3.7745274568792728e-04 7.6980643524204671e-03 -1.4841768835479630e-02  -3.5263180635739042e-04 8.2573391914614689e-03 -1.6638245869335908e-02  1.3319688026618745e-03 9.6408103612982670e-03 -1.7356585355687505e-02  0.0000000000000000e+00 0.0000000000000000e+00 0.0000000000000000e+00  -1.7058936746469962e-05 1.8862901213179022e-06 -2.5707772597464337e-05  -3.2315471292723819e-05 6.2873605406305997e-06 -9.5925339199063708e-05  -4.5836590086686626e-05 1.3122824871728880e-05 -2.0693098296899261e-04  -5.7676770258063340e-05 2.2127501894739697e-05 -3.5382378397975440e-04  -6.7946062135186214e-05 3.3076300609104117e-05 -5.3200467708204645e-04  -7.6756905703703992e-05 4.5748806407214059e-05 -7.3718795596394552e-04  -8.4221489830007127e-05 5.9931427619520576e-05 -9.6540203838698117e-04  -9.0451850038430912e-05 7.5418389614069294e-05 -1.2129894386512013e-03  -9.5559938769135017e-05 9.2013143264390546e-05 -1.4766070309866004e-03  -9.9657610327698711e-05 1.0952983765824225e-04 -1.7532263401994061e-03  -1.0285659206448449e-04 1.2779488874041866e-04 -2.0401337914169888e-03  -1.0526845113662083e-04 1.4664861802941899e-04 -2.3349308937513800e-03  -1.0700456286743285e-04 1.6594694357998521e-04 -2.6355343502846651e-03  -1.0817606739171411e-04 1.8556315069093388e-04 -2.9401761100777669e-03  -1.0889382277543053e-04 2.0538958039661171e-04 -3.2474032132667301e-03  -1.0926815744356953e-04 2.2533975877449275e-04 -3.5560776389068666e-03  -1.0940864397767463e-04 2.4535015009451676e-04 -3.8653744168978908e-03  -1.0943273112217497e-04 2.6538106323741641e-04 -4.1747810984611323e-03  0.0000000000000000e+00 0.0000000000000000e+00 0.0000000000000000e+00  -1.6334520919652608e-05 2.8053590932414997e-06 -2.5436377067402850e-05  -3.2408149768136686e-05 7.1084144644104573e-06 -9.5522517236788825e-05  -4.6685872629754952e-05 1.3846677189192286e-05 -2.0646661386881343e-04  -5.9209435207421454e-05 2.2756760205127696e-05 -3.5330487300172807e-04  -7.0093621600795204e-05 3.3617402451214139e-05 -5.3143740973228505e-04  -7.9452768338820801e-05 4.6208313469443262e-05 -7.3657786726263972e-04  -8.7400976664889815e-05 6.0315903618782001e-05 -9.6475433258503543e-04  -9.4052500577743265e-05 7.5734399440604647e-05 -1.2123089952613192e-03  -9.9521877456385029e-05 9.2267257883542404e-05 -1.4758983853432012e-03  -1.0392394161056764e-04 1.0972863474394167e-04 -1.7524936636428717e-03  -1.0737381640127805e-04 1.2794495147243481e-04 -2.0393808702633374e-03  -1.0998689613516675e-04 1.4675653361371152e-04 -2.3341611076703019e-03  -1.1187883191505718e-04 1.6601929958842327e-04 -2.6347506473778899e-03  -1.1316548713577365e-04 1.8560652904838176e-04 -2.9393809847724967e-03  -1.1396293615625967e-04 2.0541054127295156e-04 -3.2465986371181298e-03  -1.1438730147686970e-04 2.2534470663421733e-04 -3.5552650482205397e-03  -1.1455394776157266e-04 2.4534557720958352e-04 -3.8645543955847629e-03  -1.1458533473040643e-04 2.6537293626308734e-04 -4.1739533498433871e-03  0.0000000000000000e+00 0.0000000000000000e+00 0.0000000000000000e+00  -1.7613241984540868e-03 -2.9555055407304545e-03 -5.8471611992694629e-03  -1.1175189879585985e-03 -5.7340775240143031e-03 -1.0365130036429328e-02  -3.6330527731172758e-04 -6.9628735409827530e-03 -1.1256669331114751e-02  -1.6226663776516077e-04 -7.3082206871751395e-03 -1.1673781577341214e-02  -1.1354354172197633e-04 -7.4192669907959989e-03 -1.1949511980783400e-02  -1.1245175118639049e-04 -7.4606016527400260e-03 -1.2235005061092635e-02  -1.2014149609971369e-04 -7.4862428909582947e-03 -1.2546007765503232e-02  -1.2863166918931831e-04 -7.5091328515546557e-03 -1.2882472575834834e-02  -1.3601106698686038e-04 -7.5323056020125262e-03 -1.3240898303231998e-02  -1.4204877388467792e-04 -7.5564285736040935e-03 -1.3617472873269020e-02  -1.4690234387018788e-04 -7.5815599711789739e-03 -1.4008374648605597e-02  -1.5068427430740510e-04 -7.6080610237439584e-03 -1.4411399631309845e-02  -1.5461854538698240e-04 -7.6373490971744385e-03 -1.4820679913704282e-02  -1.6203944391915095e-04 -7.6771473255753059e-03 -1.5251292357272146e-02  -1.9554967311669562e-04 -7.7411743229017557e-03 -1.5672393282008371e-02  -3.7009724386930307e-04 -7.9804790650490030e-03 -1.6319882923856794e-02  -1.4628766628722265e-04 -8.8013578913788987e-03 -1.7709503720424912e-02  8.7621802921477882e-04 -1.0357192370234655e-02 -1.7163988982061222e-02  0.0000000000000000e+00 0.0000000000000000e+00 0.0000000000000000e+00  -2.7911105995289546e-03 -3.7541257358987981e-03 -1.0303496508535997e-02  -1.8552434165543359e-03 -7.7060261672775498e-03 -1.9333753331418548e-02  -5.4685418020910333e-04 -9.6426978689013124e-03 -2.1519655908801449e-02  -2.2707802620156121e-04 -1.0232347118551572e-02 -2.2309715023670577e-02  -1.4406608121944671e-04 -1.0420298037375566e-02 -2.2739219106964713e-02  -1.3773411000247960e-04 -1.0484675409609484e-02 -2.3105226871854623e-02  -1.4609758739948553e-04 -1.0515759586041720e-02 -2.3488518243981054e-02  -1.5621918849945419e-04 -1.0539376108075061e-02 -2.3897301995437867e-02  -1.6520415594289536e-04 -1.0561646028699965e-02 -2.4331650541281960e-02  -1.7261854426988928e-04 -1.0584258283642786e-02 -2.4787659512473512e-02  -1.7854542271119881e-04 -1.0607573129272282e-02 -2.5261094666168948e-02  -1.8345904342940785e-04 -1.0632350781903846e-02 -2.5749942088741717e-02  -1.8819196985127193e-04 -1.0660723440472128e-02 -2.6248292703457698e-02  -2.0124503880619550e-04 -1.0704780114401746e-02 -2.6783899738864626e-02  -2.3787377583124014e-04 -1.0783788443228522e-02 -2.7336794740768281e-02  -5.0195900533938720e-04 -1.1074937152219513e-02 -2.8248510787577313e-02  -2.3609366183537843e-04 -1.2261260436322426e-02 -3.0946947229825075e-02  6.1519541126700290e-04 -1.4729513700486613e-02 -3.0719312101003395e-02  0.0000000000000000e+00 0.0000000000000000e+00 0.0000000000000000e+00  -2.9085670880665609e-03 -3.6921947810043512e-03 -1.3765621898559942e-02  -2.1042267811502155e-03 -8.0048301933040612e-03 -2.6271333477072670e-02  -5.5976777216283061e-04 -1.0199798090119503e-02 -3.0091210022127658e-02  -2.2594032698343848e-04 -1.0921280370240110e-02 -3.1366313742008725e-02  -1.4992743368471127e-04 -1.1152778468003039e-02 -3.1983717233443593e-02  -1.4389355196757977e-04 -1.1229193036392200e-02 -3.2414708554914261e-02  -1.5437459676406626e-04 -1.1259867567179328e-02 -3.2836940016680485e-02  -1.6526977030069601e-04 -1.1279023203552032e-02 -3.3276158905146909e-02  -1.7499646560145107e-04 -1.1295184559868452e-02 -3.3739985054925627e-02  -1.8294608041298003e-04 -1.1310858791480017e-02 -3.4225644760319709e-02  -1.8924067707211156e-04 -1.1326739344690957e-02 -3.4729561986002355e-02  -1.9431696161381086e-04 -1.1343608802810441e-02 -3.5249667270321527e-02  -1.9822355606209476e-04 -1.1364252090588420e-02 -3.5784821567140371e-02  -2.0945262699518705e-04 -1.1399356778411971e-02 -3.6362727147993885e-02  -2.2643212657230037e-04 -1.1476988896814897e-02 -3.7034352067676642e-02  -4.2226251592927832e-04 -1.1760610158273918e-02 -3.8136556572882209e-02  -1.2560454482701599e-04 -1.2977057034930727e-02 -4.1756884173504434e-02  6.9941944081403117e-04 -1.5704654110837362e-02 -4.2598468103246176e-02  0.0000000000000000e+00 0.0000000000000000e+00 0.0000000000000000e+00  -1.0896273560713793e-03 2.0352410112556697e-03 -1.3544301277384822e-02  -8.2788882078813032e-04 3.8006940376253992e-03 -2.6099899944492064e-02  -2.6424379692345658e-04 4.4394394754696132e-03 -2.9774551117003379e-02  -1.1021083606293887e-04 4.6169030254784825e-03 -3.0993265046659172e-02  -6.6098284764055818e-05 4.6851602393917433e-03 -3.1574409157577775e-02  -5.8279010616641913e-05 4.7174613170572225e-03 -3.2001352873349868e-02  -6.0419823037349006e-05 4.7435609381471710e-03 -3.2426433108970303e-02  -6.4012875958098574e-05 4.7682399385759883e-03 -3.2871681387505305e-02  -6.7511189509904186e-05 4.7935907835139476e-03 -3.3342212496203789e-02  -7.0480095215622133e-05 4.8197723925784090e-03 -3.3834950399034690e-02  -7.2856713460914881e-05 4.8468904893185791e-03 -3.4345709465994828e-02  -7.5163301427792962e-05 4.8750187249272320e-03 -3.4873652397872830e-02  -7.6162019717947334e-05 4.9056235245203469e-03 -3.5411023545935338e-02  -8.5865438336436354e-05 4.9443417366280317e-03 -3.6006648767981556e-02  -9.4818658945860888e-05 4.9968787014871945e-03 -3.6605322064300144e-02  -2.0980435890232804e-04 5.2118993642171667e-03 -3.7958056935778917e-02  1.9482418008295104e-04 5.7674165079036463e-03 -4.1500960466163105e-02  9.2686980899677439e-04 6.5583148516270779e-03 -4.0585814979403390e-02  0.0000000000000000e+00 0.0000000000000000e+00 0.0000000000000000e+00  -1.2047792251493634e-03 1.7773921043125901e-03 -8.6706880507689491e-03  -9.6033319070081957e-04 3.3063915929838678e-03 -1.7875354458438922e-02  -2.9757125885645239e-04 3.9371769817164708e-03 -2.0345971811829962e-02  -1.1232451170041226e-04 4.1256394366795497e-03 -2.1092898657925626e-02  -6.8235438368522918e-05 4.1965708527304350e-03 -2.1545920525491851e-02  -5.8199200493647139e-05 4.2306487315197042e-03 -2.1912346101894100e-02  -6.0518713565992012e-05 4.2574162819091930e-03 -2.2299941517305827e-02  -6.3987633177901761e-05 4.2827965042093775e-03 -2.2711355210449112e-02  -6.7535777418868115e-05 4.3088104492470455e-03 -2.3148392212251692e-02  -7.0537638290270769e-05 4.3356960865441763e-03 -2.3606840331686727e-02  -7.2959789997642367e-05 4.3635139467615739e-03 -2.4082448023635600e-02  -7.5283415791922272e-05 4.3923272583323543e-03 -2.4572813282688316e-02  -7.6762588861116926e-05 4.4232905494387261e-03 -2.5069135057974538e-02  -8.5010419803413156e-05 4.4623574967882964e-03 -2.5594383553608397e-02  -9.6674004415981107e-05 4.5135204780456543e-03 -2.6104313318945856e-02  -2.3318260246043445e-04 4.6886632646417001e-03 -2.6959067608578940e-02  -2.3221603883480758e-05 5.1333901452041966e-03 -2.9981831019310512e-02  9.0640845379617732e-04 5.9662529970203760e-03 -2.9981204727308215e-02  0.0000000000000000e+00 0.0000000000000000e+00 0.0000000000000000e+00  -8.0964333053974789e-04 1.0851907051833783e-03 -3.7983599600445667e-03  -6.8295581707171764e-04 2.0152792305234107e-03 -8.4310694484980211e-03  -2.1424569627150433e-04 2.4437360155792056e-03 -9.5619959534161657e-03  -7.8373667424952738e-05 2.5836431421180019e-03 -9.8559064366658244e-03  -5.5405543272144992e-05 2.6383801048644184e-03 -1.0143591883542736e-02  -4.9031458384618598e-05 2.6694284555984164e-03 -1.0416366689847176e-02  -5.1884575534032474e-05 2.6957140436916814e-03 -1.0718684737508630e-02  -5.5014660167620493e-05 2.7218857805665912e-03 -1.1044283109477412e-02  -5.8110067256202138e-05 2.7490811311884169e-03 -1.1391284721980187e-02  -6.0676291388602252e-05 2.7773974259911734e-03 -1.1755658611890580e-02  -6.2754977737641788e-05 2.8067243242126849e-03 -1.2133876529523534e-02  -6.4519863540691208e-05 2.8370389072394156e-03 -1.2522912786500154e-02  -6.5989860641685246e-05 2.8685763045771507e-03 -1.2917594611079785e-02  -7.0733486420454820e-05 2.9055669488622280e-03 -1.3317341593995911e-02  -8.1251577131676391e-05 2.9508469048417810e-03 -1.3712231547939966e-02  -1.7323894865097899e-04 3.0673916230882789e-03 -1.4140619576292812e-02  -1.4283125976252833e-04 3.3129767530387889e-03 -1.5923057956749757e-02  8.9389734770444948e-04 4.0092171262929334e-03 -1.6672709605763031e-02  0.0000000000000000e+00 0.0000000000000000e+00 0.0000000000000000e+00  -7.9804642307526702e-06 1.7771320679999330e-06 -2.4996956278247590e-05  -1.5586398062520405e-05 6.1361586524023764e-06 -9.5281660501695341e-05  -2.2265622780422425e-05 1.2909955547366916e-05 -2.0635990673522646e-04  -2.8111882384478174e-05 2.1861409335436965e-05 -3.5332395551955243e-04  -3.3182768509016341e-05 3.2762158898965318e-05 -5.3157152826261724e-04  -3.7534374802896635e-05 4.5391588495856707e-05 -7.3681672380150305e-04  -4.1222365318772723e-05 5.9535868626109895e-05 -9.6508792938775349e-04  -4.4302227434788352e-05 7.4988992715128424e-05 -1.2127276536611474e-03  -4.6829315563089733e-05 9.1554169392821857e-05 -1.4763927683824792e-03  -4.8858839211881958e-05 1.0904529162606391e-04 -1.7530547977542329e-03  -5.0445843457189484e-05 1.2728850441764468e-04 -2.0400001675779230e-03  -5.1645188361880541e-05 1.4612384270857551e-04 -2.3348303887970770e-03  -5.2511529323034337e-05 1.6540692055449775e-04 -2.6354621670284287e-03  -5.3099300338783385e-05 1.8501069705187173e-04 -2.9401274545959987e-03  -5.3462679623906974e-05 2.0482715171288573e-04 -3.2473732897272708e-03  -5.3655522360301580e-05 2.2476935840885808e-04 -3.5560616379816850e-03  -5.3731045710440036e-05 2.4477336210718185e-04 -3.8653674365874574e-03  -5.3744534312321627e-05 2.6479854669543616e-04 -4.1747757371930778e-03  0.0000000000000000e+00 0.0000000000000000e+00 0.0000000000000000e+00  -8.3134093385327300e-06 2.4485918379029927e-06 -2.4578519045242988e-05  -1.6678245610954825e-05 6.6797807799267004e-06 -9.4809247391216189e-05  -2.3988476740285685e-05 1.3384718594113261e-05 -2.0583563500033589e-04  -3.0403976912435780e-05 2.2274425621788824e-05 -3.5275168715442694e-04  -3.5983802945571283e-05 3.3118089684994298e-05 -5.3095654509208341e-04  -4.0785806120268048e-05 4.5694703668670546e-05 -7.3616422809018572e-04  -4.4867514177454272e-05 5.9790381564266940e-05 -9.6440285420764760e-04  -4.8286610536508013e-05 7.5199111156812253e-05 -1.2120146097018860e-03  -5.1101014043353764e-05 9.1724104285059732e-05 -1.4756560161820877e-03  -5.3368890880512110e-05 1.0917925804185545e-04 -1.7522982265771260e-03  -5.5148655711147680e-05 1.2739072080111068e-04 -2.0392272739644703e-03  -5.6498966722674053e-05 1.4619852992193148e-04 -2.3340442548454377e-03  -5.7478721848926161e-05 1.6545830009779110e-04 -2.6346654351274076e-03  -5.8147043474194728e-05 1.8504298905657742e-04 -2.9393223059267252e-03  -5.8563272026099706e-05 2.0484457099550148e-04 -3.2465613748484633e-03  -5.8786948672361326e-05 2.2477605212582014e-04 -3.5552440681724524e-03  -5.8877211213172683e-05 2.4477339505165583e-04 -3.8645446236218856e-03  -5.8895520917118127e-05 2.6479550230448941e-04 -4.1739487784565573e-03  0.0000000000000000e+00 0.0000000000000000e+00 0.0000000000000000e+00  -8.9089687799052627e-04 -1.0141865378280035e-03 -5.3487269614047222e-03  -6.4708020222767305e-04 -2.0088237709033571e-03 -9.3997421572581605e-03  -2.0868594735493938e-04 -2.4774327457825467e-03 -9.9560090628087634e-03  -8.5944994132205798e-05 -2.5998512043553385e-03 -1.0231117239158647e-02  -5.9146868568365423e-05 -2.6299158730523219e-03 -1.0464807040948990e-02  -5.8213079948503817e-05 -2.6338020792452889e-03 -1.0733708300411359e-02  -6.2486968563946492e-05 -2.6300199676763023e-03 -1.1035700907844956e-02  -6.7049487907679239e-05 -2.6242496964518024e-03 -1.1364388467264367e-02  -7.0965580807003684e-05 -2.6175828733787094e-03 -1.1715009390240718e-02  -7.4158452815092094e-05 -2.6104703490268913e-03 -1.2083445874119723e-02  -7.6636029916455546e-05 -2.6030667346823595e-03 -1.2465834705825161e-02  -7.8736762959673954e-05 -2.5956376542020220e-03 -1.2860006164079873e-02  -7.9696066278516086e-05 -2.5888556059985328e-03 -1.3259580128184923e-02  -8.5017165737778905e-05 -2.5850155040713536e-03 -1.3678621891782202e-02  -9.2758687154573973e-05 -2.5892590951299452e-03 -1.4081895402249772e-02  -1.6508394217318862e-04 -2.6506477125034268e-03 -1.4676717053202450e-02  -8.5727530109900801e-05 -2.9816109348445685e-03 -1.5924909813243862e-02  6.4318874047213862e-04 -3.6487226274434011e-03 -1.4854293574733210e-02  0.0000000000000000e+00 0.0000000000000000e+00 0.0000000000000000e+00  -1.2963083059246215e-03 -1.6078812378497996e-03 -1.0009406226388200e-02  -9.7955203159540757e-04 -3.4517273196242992e-03 -1.8973757610114588e-02  -2.8199825783822624e-04 -4.3905594828908649e-03 -2.1001835307028382e-02  -1.0907508638410679e-04 -4.6709948310872974e-03 -2.1674632909018460e-02  -7.2864647875746418e-05 -4.7507915914448001e-03 -2.2071792732532097e-02  -7.1265167103922011e-05 -4.7716274613034603e-03 -2.2427014484376260e-02  -7.6969897100824956e-05 -4.7750252265911152e-03 -2.2808108929731032e-02  -8.2735610227060736e-05 -4.7742934223704335e-03 -2.3216800091790793e-02  -8.7682782475866401e-05 -4.7721945926839371e-03 -2.365