<?xml version="1.0"?>
<VTKFile type="UnstructuredGrid"  version="0.1"  >
<UnstructuredGrid>
<Piece  NumberOfPoints="760" NumberOfCells="3024">
<Points>
<DataArray  type="Float64"  NumberOfComponents="3"  format="ascii">0 0 0  0.05555555555555555 0 0  0.1111111111111111 0 0  0.1666666666666667 0 0  0.2222222222222222 0 0  0.2777777777777778 0 0  0.3333333333333333 0 0  0.3888888888888889 0 0  0.4444444444444444 0 0  0.5 0 0  0.5555555555555556 0 0  0.6111111111111112 0 0  0.6666666666666666 0 0  0.7222222222222222 0 0  0.7777777777777778 0 0  0.8333333333333334 0 0  0.8888888888888888 0 0  0.9444444444444444 0 0  1 0 0  0 0.01428571428571429 0  0.05555555555555555 0.01428571428571429 0  0.1111111111111111 0.01428571428571429 0  0.1666666666666667 0.01428571428571429 0  0.2222222222222222 0.01428571428571429 0  0.2777777777777778 0.01428571428571429 0  0.3333333333333333 0.01428571428571429 0  0.3888888888888889 0.01428571428571429 0  0.4444444444444444 0.01428571428571429 0  0.5 0.01428571428571429 0  0.5555555555555556 0.01428571428571429 0  0.6111111111111112 0.01428571428571429 0  0.6666666666666666 0.01428571428571429 0  0.7222222222222222 0.01428571428571429 0  0.7777777777777778 0.01428571428571429 0  0.8333333333333334 0.01428571428571429 0  0.8888888888888888 0.01428571428571429 0  0.9444444444444444 0.01428571428571429 0  1 0.01428571428571429 0  0 0.02857142857142857 0  0.05555555555555555 0.02857142857142857 0  0.1111111111111111 0.02857142857142857 0  0.1666666666666667 0.02857142857142857 0  0.2222222222222222 0.02857142857142857 0  0.2777777777777778 0.02857142857142857 0  0.3333333333333333 0.02857142857142857 0  0.3888888888888889 0.02857142857142857 0  0.4444444444444444 0.02857142857142857 0  0.5 0.02857142857142857 0  0.5555555555555556 0.02857142857142857 0  0.6111111111111112 0.02857142857142857 0  0.6666666666666666 0.02857142857142857 0  0.7222222222222222 0.02857142857142857 0  0.7777777777777778 0.02857142857142857 0  0.8333333333333334 0.02857142857142857 0  0.8888888888888888 0.02857142857142857 0  0.9444444444444444 0.02857142857142857 0  1 0.02857142857142857 0  0 0.04285714285714286 0  0.05555555555555555 0.04285714285714286 0  0.1111111111111111 0.04285714285714286 0  0.1666666666666667 0.04285714285714286 0  0.2222222222222222 0.04285714285714286 0  0.2777777777777778 0.04285714285714286 0  0.3333333333333333 0.04285714285714286 0  0.3888888888888889 0.04285714285714286 0  0.4444444444444444 0.04285714285714286 0  0.5 0.04285714285714286 0  0.5555555555555556 0.04285714285714286 0  0.6111111111111112 0.04285714285714286 0  0.6666666666666666 0.04285714285714286 0  0.7222222222222222 0.04285714285714286 0  0.7777777777777778 0.04285714285714286 0  0.8333333333333334 0.04285714285714286 0  0.8888888888888888 0.04285714285714286 0  0.9444444444444444 0.04285714285714286 0  1 0.04285714285714286 0  0 0.05714285714285715 0  0.05555555555555555 0.05714285714285715 0  0.1111111111111111 0.05714285714285715 0  0.1666666666666667 0.05714285714285715 0  0.2222222222222222 0.05714285714285715 0  0.2777777777777778 0.05714285714285715 0  0.3333333333333333 0.05714285714285715 0  0.3888888888888889 0.05714285714285715 0  0.4444444444444444 0.05714285714285715 0  0.5 0.05714285714285715 0  0.5555555555555556 0.05714285714285715 0  0.6111111111111112 0.05714285714285715 0  0.6666666666666666 0.05714285714285715 0  0.7222222222222222 0.05714285714285715 0  0.7777777777777778 0.05714285714285715 0  0.8333333333333334 0.05714285714285715 0  0.8888888888888888 0.05714285714285715 0  0.9444444444444444 0.05714285714285715 0  1 0.05714285714285715 0  0 0.07142857142857142 0  0.05555555555555555 0.07142857142857142 0  0.1111111111111111 0.07142857142857142 0  0.1666666666666667 0.07142857142857142 0  0.2222222222222222 0.07142857142857142 0  0.2777777777777778 0.07142857142857142 0  0.3333333333333333 0.07142857142857142 0  0.3888888888888889 0.07142857142857142 0  0.4444444444444444 0.07142857142857142 0  0.5 0.07142857142857142 0  0.5555555555555556 0.07142857142857142 0  0.6111111111111112 0.07142857142857142 0  0.6666666666666666 0.07142857142857142 0  0.7222222222222222 0.07142857142857142 0  0.7777777777777778 0.07142857142857142 0  0.8333333333333334 0.07142857142857142 0  0.8888888888888888 0.07142857142857142 0  0.9444444444444444 0.07142857142857142 0  1 0.07142857142857142 0  0 0.08571428571428573 0  0.05555555555555555 0.08571428571428573 0  0.1111111111111111 0.08571428571428573 0  0.1666666666666667 0.08571428571428573 0  0.2222222222222222 0.08571428571428573 0  0.2777777777777778 0.08571428571428573 0  0.3333333333333333 0.08571428571428573 0  0.3888888888888889 0.08571428571428573 0  0.4444444444444444 0.08571428571428573 0  0.5 0.08571428571428573 0  0.5555555555555556 0.08571428571428573 0  0.6111111111111112 0.08571428571428573 0  0.6666666666666666 0.08571428571428573 0  0.7222222222222222 0.08571428571428573 0  0.7777777777777778 0.08571428571428573 0  0.8333333333333334 0.08571428571428573 0  0.8888888888888888 0.08571428571428573 0  0.9444444444444444 0.08571428571428573 0  1 0.08571428571428573 0  0 0.1 0  0.05555555555555555 0.1 0  0.1111111111111111 0.1 0  0.1666666666666667 0.1 0  0.2222222222222222 0.1 0  0.2777777777777778 0.1 0  0.3333333333333333 0.1 0  0.3888888888888889 0.1 0  0.4444444444444444 0.1 0  0.5 0.1 0  0.5555555555555556 0.1 0  0.6111111111111112 0.1 0  0.6666666666666666 0.1 0  0.7222222222222222 0.1 0  0.7777777777777778 0.1 0  0.8333333333333334 0.1 0  0.8888888888888888 0.1 0  0.9444444444444444 0.1 0  1 0.1 0  0 0 0.01  0.05555555555555555 0 0.01  0.1111111111111111 0 0.01  0.1666666666666667 0 0.01  0.2222222222222222 0 0.01  0.2777777777777778 0 0.01  0.3333333333333333 0 0.01  0.3888888888888889 0 0.01  0.4444444444444444 0 0.01  0.5 0 0.01  0.5555555555555556 0 0.01  0.6111111111111112 0 0.01  0.6666666666666666 0 0.01  0.7222222222222222 0 0.01  0.7777777777777778 0 0.01  0.8333333333333334 0 0.01  0.8888888888888888 0 0.01  0.9444444444444444 0 0.01  1 0 0.01  0 0.01428571428571429 0.01  0.05555555555555555 0.01428571428571429 0.01  0.1111111111111111 0.01428571428571429 0.01  0.1666666666666667 0.01428571428571429 0.01  0.2222222222222222 0.01428571428571429 0.01  0.2777777777777778 0.01428571428571429 0.01  0.3333333333333333 0.01428571428571429 0.01  0.3888888888888889 0.01428571428571429 0.01  0.4444444444444444 0.01428571428571429 0.01  0.5 0.01428571428571429 0.01  0.5555555555555556 0.01428571428571429 0.01  0.6111111111111112 0.01428571428571429 0.01  0.6666666666666666 0.01428571428571429 0.01  0.7222222222222222 0.01428571428571429 0.01  0.7777777777777778 0.01428571428571429 0.01  0.8333333333333334 0.01428571428571429 0.01  0.8888888888888888 0.01428571428571429 0.01  0.9444444444444444 0.01428571428571429 0.01  1 0.01428571428571429 0.01  0 0.02857142857142857 0.01  0.05555555555555555 0.02857142857142857 0.01  0.1111111111111111 0.02857142857142857 0.01  0.1666666666666667 0.02857142857142857 0.01  0.2222222222222222 0.02857142857142857 0.01  0.2777777777777778 0.02857142857142857 0.01  0.3333333333333333 0.02857142857142857 0.01  0.3888888888888889 0.02857142857142857 0.01  0.4444444444444444 0.02857142857142857 0.01  0.5 0.02857142857142857 0.01  0.5555555555555556 0.02857142857142857 0.01  0.6111111111111112 0.02857142857142857 0.01  0.6666666666666666 0.02857142857142857 0.01  0.7222222222222222 0.02857142857142857 0.01  0.7777777777777778 0.02857142857142857 0.01  0.8333333333333334 0.02857142857142857 0.01  0.8888888888888888 0.02857142857142857 0.01  0.9444444444444444 0.02857142857142857 0.01  1 0.02857142857142857 0.01  0 0.04285714285714286 0.01  0.05555555555555555 0.04285714285714286 0.01  0.1111111111111111 0.04285714285714286 0.01  0.1666666666666667 0.04285714285714286 0.01  0.2222222222222222 0.04285714285714286 0.01  0.2777777777777778 0.04285714285714286 0.01  0.3333333333333333 0.04285714285714286 0.01  0.3888888888888889 0.04285714285714286 0.01  0.4444444444444444 0.04285714285714286 0.01  0.5 0.04285714285714286 0.01  0.5555555555555556 0.04285714285714286 0.01  0.6111111111111112 0.04285714285714286 0.01  0.6666666666666666 0.04285714285714286 0.01  0.7222222222222222 0.04285714285714286 0.01  0.7777777777777778 0.04285714285714286 0.01  0.8333333333333334 0.04285714285714286 0.01  0.8888888888888888 0.04285714285714286 0.01  0.9444444444444444 0.04285714285714286 0.01  1 0.04285714285714286 0.01  0 0.05714285714285715 0.01  0.05555555555555555 0.05714285714285715 0.01  0.1111111111111111 0.05714285714285715 0.01  0.1666666666666667 0.05714285714285715 0.01  0.2222222222222222 0.05714285714285715 0.01  0.2777777777777778 0.05714285714285715 0.01  0.3333333333333333 0.05714285714285715 0.01  0.3888888888888889 0.05714285714285715 0.01  0.4444444444444444 0.05714285714285715 0.01  0.5 0.05714285714285715 0.01  0.5555555555555556 0.05714285714285715 0.01  0.6111111111111112 0.05714285714285715 0.01  0.6666666666666666 0.05714285714285715 0.01  0.7222222222222222 0.05714285714285715 0.01  0.7777777777777778 0.05714285714285715 0.01  0.8333333333333334 0.05714285714285715 0.01  0.8888888888888888 0.05714285714285715 0.01  0.9444444444444444 0.05714285714285715 0.01  1 0.05714285714285715 0.01  0 0.07142857142857142 0.01  0.05555555555555555 0.07142857142857142 0.01  0.1111111111111111 0.07142857142857142 0.01  0.1666666666666667 0.07142857142857142 0.01  0.2222222222222222 0.07142857142857142 0.01  0.2777777777777778 0.07142857142857142 0.01  0.3333333333333333 0.07142857142857142 0.01  0.3888888888888889 0.07142857142857142 0.01  0.4444444444444444 0.07142857142857142 0.01  0.5 0.07142857142857142 0.01  0.5555555555555556 0.07142857142857142 0.01  0.6111111111111112 0.07142857142857142 0.01  0.6666666666666666 0.07142857142857142 0.01  0.7222222222222222 0.07142857142857142 0.01  0.7777777777777778 0.07142857142857142 0.01  0.8333333333333334 0.07142857142857142 0.01  0.8888888888888888 0.07142857142857142 0.01  
[...]
<PointData  Vectors="f_36"> 
<DataArray  type="Float64"  Name="f_36"  NumberOfComponents="3" format="ascii">0.0000000000000000e+00 0.0000000000000000e+00 0.0000000000000000e+00  -1.1294605485196610e-03 2.2952078565001083e-03 -5.5008076651436979e-03  -1.1099904110957292e-03 4.1684261439858166e-03 -1.1258363410942206e-02  -4.9898835970096976e-04 5.1717500206171401e-03 -1.5009492511206124e-02  3.9905032718448699e-04 4.8989714568610787e-03 -1.5082956696186417e-02  1.2899027285881047e-03 3.3127423810324786e-03 -1.1040610475018241e-02  1.7288652881507483e-03 9.0872474886214425e-04 -3.6670800964673633e-03  1.2132093047196840e-03 -1.1492632628549630e-03 3.7368269183046380e-03  2.1179155408062724e-04 -1.8506380794311938e-03 6.4451208580215301e-03  -4.3129799843477434e-05 -1.7445459537439732e-03 5.2139875922956177e-03  5.8629241643520921e-04 -2.2321211853531019e-03 5.7867664231902906e-03  9.9229808330550590e-04 -3.5332145190459614e-03 1.0040237844642525e-02  7.4116518928223584e-04 -4.7149565061338329e-03 1.4128075321668586e-02  4.8695533727035738e-04 -5.4034464514964263e-03 1.6076149085175372e-02  4.7717086536593284e-04 -5.9693028907419048e-03 1.7732651167044339e-02  4.3950381271257925e-04 -6.5222984334395873e-03 1.9581046632658316e-02  3.0185414361249977e-04 -6.9572980608763367e-03 2.1087193002457191e-02  -3.9560765731751939e-05 -7.2743177861223692e-03 2.2254105197421766e-02  -4.9251290590542594e-04 -7.7613318811913731e-03 2.2415092599237813e-02  0.0000000000000000e+00 0.0000000000000000e+00 0.0000000000000000e+00  -1.0961559708881755e-03 1.9602683053902303e-03 -3.4550033035514317e-03  -1.0972732862855939e-03 3.7123591184691088e-03 -7.4982560549340426e-03  -5.3619723399980952e-04 4.7353603969350214e-03 -1.0298747619746447e-02  3.1505611251419531e-04 4.6062270778237544e-03 -1.0578664629028824e-02  1.1746877830528127e-03 3.2427687324722413e-03 -7.9442646218174113e-03  1.6471469042366302e-03 1.0469360718881058e-03 -2.7753924124436836e-03  1.2490580811691683e-03 -9.3524150943796811e-04 2.7002221354487802e-03  2.8733699498523338e-04 -1.6897084150327990e-03 4.7763375845893382e-03  -7.0723638301107845e-05 -1.6002895838148163e-03 3.6947517732258874e-03  4.8628170934230514e-04 -1.9768320689574396e-03 3.8345946183320832e-03  9.5254219895461853e-04 -3.1435537901907400e-03 6.8791534580470758e-03  7.5573248789425425e-04 -4.2678971873518377e-03 9.9043177821765954e-03  4.6990473833497876e-04 -4.9331056721988471e-03 1.1251749872304925e-02  4.4704679842819600e-04 -5.4595406983782777e-03 1.2384395181428630e-02  4.2632830549898886e-04 -5.9775273773125959e-03 1.3724211604658062e-02  3.1801317075301700e-04 -6.3953221867411904e-03 1.4837475873940362e-02  8.7022634522571524e-05 -6.7230629433684868e-03 1.5795387739725098e-02  -5.2924213791672597e-04 -7.3982336087532298e-03 1.6310717422049214e-02  0.0000000000000000e+00 0.0000000000000000e+00 0.0000000000000000e+00  -6.6791127614769898e-04 1.2040420019238951e-03 -1.4706005960783012e-03  -6.8517384740638125e-04 2.3922858183296216e-03 -3.4027197986602324e-03  -3.4673023019983446e-04 3.1600021095616062e-03 -4.8058892291379957e-03  1.7914183154451964e-04 3.1702523926144801e-03 -5.0217364316144332e-03  7.1630151509895277e-04 2.3254474068729303e-03 -3.8255979609466860e-03  1.0277485834151614e-03 8.4479777496644409e-04 -1.3230279472615206e-03  8.1666238110476852e-04 -5.7862362815299469e-04 1.4779683341041602e-03  2.2439439755439524e-04 -1.1600147994127771e-03 2.6228430818235750e-03  -3.6741431601908468e-05 -1.0655152843893428e-03 2.0627980378642632e-03  2.8949610566641164e-04 -1.2423975980834709e-03 2.0482510237722889e-03  6.0627934733289881e-04 -2.0183228347972646e-03 3.5831450884368007e-03  5.0363550592154457e-04 -2.8130375189402931e-03 5.1725080277258426e-03  3.1178786237592013e-04 -3.2735675680332288e-03 5.8725160196510745e-03  2.9128985262035227e-04 -3.6239687240140293e-03 6.4577142563899161e-03  2.8536879660271596e-04 -3.9798011897120089e-03 7.1779611492674786e-03  2.2779059946316686e-04 -4.2794637269174271e-03 7.7936848598489754e-03  1.5187445464716264e-04 -4.5099966053157737e-03 8.3681793085258523e-03  -6.8084820672749391e-04 -5.3753351218042119e-03 8.9569747363911819e-03  0.0000000000000000e+00 0.0000000000000000e+00 0.0000000000000000e+00  6.2683433718389460e-06 -5.0869893898065722e-07 8.9386810660225347e-06  1.2258388995970435e-05 -1.6334843499216623e-06 3.4709620588392486e-05  1.7937699452770833e-05 -3.3927210579631431e-06 7.6978739787453716e-05  2.3237138150186076e-05 -5.7352346644014090e-06 1.3476492798414488e-04  2.8097993957029610e-05 -8.6182203056104899e-06 2.0691588521547691e-04  3.2469708424358377e-05 -1.1993598012382491e-05 2.9211025465381246e-04  3.6324411478070170e-05 -1.5808769070996518e-05 3.8890116653806739e-04  3.9665703793429216e-05 -2.0008607226428796e-05 4.9580508992903513e-04  4.2517700485835006e-05 -2.4538977298994293e-05 6.1140049884443614e-04  4.4901839958228347e-05 -2.9348999386450617e-05 7.3435211815754556e-04  4.6831304907366810e-05 -3.4390160119579753e-05 8.6336382406473791e-04  4.8327613720248449e-05 -3.9614974180902224e-05 9.9716668367425985e-04  4.9430653082620324e-05 -4.4978546577904846e-05 1.1345790978740625e-03  5.0191203494254258e-05 -5.0441507187247604e-05 1.2745598722288709e-03  5.0664976441418669e-05 -5.5971069097871966e-05 1.4162179252202656e-03  5.0914476549740879e-05 -6.1540912801735453e-05 1.5588258547468315e-03  5.1009574528926426e-05 -6.7131913185764655e-05 1.7018442085704468e-03  5.1027084085630790e-05 -7.2733713179237423e-05 1.8449421048157731e-03  0.0000000000000000e+00 0.0000000000000000e+00 0.0000000000000000e+00  5.8894194156711344e-06 -8.6166717612297964e-07 8.8439922023516193e-06  1.2071710675149990e-05 -1.9730949153558712e-06 3.4574970303701567e-05  1.7941589720832791e-05 -3.7135906984291944e-06 7.6830822447320339e-05  2.3425452052633028e-05 -6.0316932782663848e-06 1.3460655609720204e-04  2.8464518203515309e-05 -8.8861927929129574e-06 2.0674854669697654e-04  3.3005520267725223e-05 -1.2230361346316897e-05 2.9193439481539450e-04  3.7016627835073006e-05 -1.6013939987119931e-05 3.8871692076037484e-04  4.0498038035960616e-05 -2.0184020274172998e-05 4.9561315089461408e-04  4.3473782948282754e-05 -2.4686688392945275e-05 6.1120255750851356e-04  4.5967608909923075e-05 -2.9469754093147564e-05 7.3415026381969941e-04  4.7993373039349444e-05 -3.4484451823948078e-05 8.6315964189183825e-04  4.9570978348413942e-05 -3.9684720817216538e-05 9.9696123592432932e-04  5.0739626310821161e-05 -4.5026832289990892e-05 1.1343734431474993e-03  5.1551292808472986e-05 -5.0471578008722582e-05 1.2743549543632045e-03  5.2062840516053876e-05 -5.5986390963357502e-05 1.4160140172721112e-03  5.2337700661114757e-05 -6.1545447813679159e-05 1.5586223663046678e-03  5.2447088527251665e-05 -6.7129999219651981e-05 1.7016396893141444e-03  5.2469094657329896e-05 -7.2729482480939805e-05 1.8447342275478011e-03  0.0000000000000000e+00 0.0000000000000000e+00 0.0000000000000000e+00  -7.3072628125210733e-04 -1.3298847326293187e-03 -2.1105688689192965e-03  -6.6081528748166286e-04 -2.6201419192882999e-03 -4.2195082864616420e-03  -2.6896663203306145e-04 -3.4868768510221354e-03 -5.5057829534506221e-03  2.6996602270334502e-04 -3.5460411872030423e-03 -5.3847440346241979e-03  7.7330181955355176e-04 -2.6986663213476574e-03 -3.7657275540986333e-03  1.0043885855412257e-03 -1.1787798778415024e-03 -9.8478927749656373e-04  7.1070138341600858e-04 3.5901059208299509e-04 1.7548845451447819e-03  1.3688315803834592e-04 1.1015774817184584e-03 2.6597597554240886e-03  -2.8948664004377562e-05 1.0632493525443640e-03 2.0402127032110580e-03  3.3016692231236289e-04 1.1662223495716524e-03 2.2173384414239457e-03  5.9001858143377904e-04 1.9041985956008650e-03 3.9112463289013525e-03  4.7049297115173686e-04 2.7854953110044755e-03 5.5097111741759970e-03  3.4350028008616590e-04 3.3835358759189949e-03 6.2937734874646883e-03  3.6885617414213580e-04 3.8853640233377082e-03 7.1298297515370122e-03  3.6785517567585325e-04 4.4266814415227854e-03 8.1488157813297147e-03  2.8980596521316311e-04 4.9280270097187646e-03 9.0283517173601214e-03  1.1050450239562141e-04 5.4267159727797373e-03 9.7580140988128977e-03  -4.8267923200457079e-04 6.3255348247644545e-03 9.8611997533448632e-03  0.0000000000000000e+00 0.0000000000000000e+00 0.0000000000000000e+00  -1.1655979804966164e-03 -1.7186031951230160e-03 -4.1352403301725812e-03  -1.0918304287699267e-03 -3.5398658498134888e-03 -8.3097230523397521e-03  -4.7580266823484939e-04 -4.8137547687231745e-03 -1.0942487012584731e-02  3.8689943175641985e-04 -4.9992782404563842e-03 -1.0860677906952733e-02  1.2004910636842596e-03 -3.9244555965860482e-03 -7.8526984187825607e-03  1.5966392693826657e-03 -1.8759807403541707e-03 -2.5841466166403658e-03  1.1628086058011733e-03 2.9046980222039223e-04 2.6951318702679275e-03  2.2498250726688804e-04 1.4493052541306808e-03 4.6118563145114786e-03  -1.0145972622603933e-04 1.5008101951333288e-03 3.5516086394653504e-03  4.6537518110176425e-04 1.6289787958328728e-03 3.7703314833887037e-03  9.2818966078613973e-04 2.5946346292380329e-03 6.8306415664279498e-03  7.4686738452160522e-04 3.8263697535109885e-03 9.8772771290819694e-03  5.1419295754648699e-04 4.7062962006316185e-03 1.1417050715673635e-02  5.5519119651947205e-04 5.4279460418441882e-03 1.2961011362889557e-02  5.6493404264752745e-04 6.1930569273423849e-03 1.4845657554587367e-02  4.2442064583434928e-04 6.9163478010525470e-03 1.6480886396859809e-02  1.3469473164966531e-04 7.6692224546824461e-03 1.7816015332666545e-02  -3.0954874972985517e-04 9.0661551313837626e-03 1.8080974183701831e-02  0.0000000000000000e+00 0.0000000000000000e+00 0.0000000000000000e+00  -1.1945415266753157e-03 -1.6791266958462909e-03 -5.6617294735384757e-03  -1.1766057086172281e-03 -3.6441482887895685e-03 -1.1441542996074531e-02  -5.7271781251836253e-04 -5.0627688709371753e-03 -1.5192621028560767e-02  3.1245619301668880e-04 -5.3558540300290922e-03 -1.5260815697484584e-02  1.1736838789384234e-03 -4.3087928698763199e-03 -1.1294205338187311e-02  1.6513594865605900e-03 -2.1855025004140437e-03 -4.2180452681600906e-03  1.2951298011700666e-03 1.4409111295230278e-04 2.9967186056195244e-03  2.9695709146729216e-04 1.4660132904703996e-03 5.9486578390836545e-03  -1.6965729904316852e-04 1.5836900488532220e-03 4.8926166903817082e-03  3.9029719209106637e-04 1.7024479313285533e-03 5.1936812885503576e-03  9.6669331863320849e-04 2.6871518185796091e-03 9.1462865394907802e-03  8.1201841035934271e-04 3.9958968457769212e-03 1.3321646987458059e-02  5.1569774102939883e-04 4.9553837418966655e-03 1.5615102421461300e-02  5.5378209587208019e-04 5.7368246195063930e-03 1.7780885526375495e-02  5.8593833353349166e-04 6.5606781789965748e-03 2.0363157513764975e-02  4.2228783911460986e-04 7.3521072530318603e-03 2.2647127441986242e-02  3.9839928272033008e-05 8.1629550244521343e-03 2.4555229243670630e-02  -3.3493105864909297e-04 9.7470577415338083e-03 2.5471796879224410e-02  0.0000000000000000e+00 0.0000000000000000e+00 0.0000000000000000e+00  -4.5161374774419215e-04 9.0330225256348036e-04 -5.3152028047673289e-03  -5.0472920650523542e-04 1.7582518873385427e-03 -1.1082743786144702e-02  -2.6434028399589457e-04 2.2430823448406768e-03 -1.4869707160785143e-02  1.1933071387184817e-04 2.1771222778049983e-03 -1.5013863035772396e-02  5.1524624738289392e-04 1.5239706815278358e-03 -1.1060372545765675e-02  7.4450026082607259e-04 4.7198269167859420e-04 -3.7492622606925489e-03  5.7565817239930040e-04 -4.7862731389384209e-04 3.6678906911368201e-03  1.4670289225671523e-04 -8.2652985860786363e-04 6.4210294035199188e-03  -1.4067119583960707e-05 -7.5488049949282534e-04 5.1675954196245613e-03  2.3351003273256493e-04 -9.2147686551501335e-04 5.6615676392431178e-03  4.4034898520871584e-04 -1.4919388107314960e-03 9.8732364634899414e-03  3.5786952528774177e-04 -2.0387393881034404e-03 1.3967036663898032e-02  2.4288555769056658e-04 -2.3466770117238070e-03 1.5907331785131214e-02  2.3469033677085813e-04 -2.5874906164375109e-03 1.7540350416139269e-02  2.1256852042619251e-04 -2.8312766350070480e-03 1.9378023196707311e-02  1.1786143304341874e-04 -3.0307193122224769e-03 2.0880794227559386e-02  -1.3272431212625569e-04 -3.2462223870174732e-03 2.2044386840998902e-02  -4.9795046537574991e-04 -3.7292995846428989e-03 2.2205862882997938e-02  0.0000000000000000e+00 0.0000000000000000e+00 0.0000000000000000e+00  -4.9414311189453612e-04 7.9366168029185982e-04 -3.3216380568279807e-03  -5.3855232673597842e-04 1.5384105589901029e-03 -7.3616243913312510e-03  -2.8746423708342497e-04 1.9842330640185927e-03 -1.0177459630097271e-02  1.1228476170822957e-04 1.9492491582748452e-03 -1.0500372174352020e-02  5.2538122799247083e-04 1.3920481320143171e-03 -7.9282257995396330e-03  7.7290897542276881e-04 4.7138197326371007e-04 -2.8105798739623540e-03  6.2302653041831219e-04 -3.8105432363932755e-04 2.6673477412629790e-03  1.7889430924182049e-04 -7.2219808927596917e-04 4.7694278939535983e-03  -2.3047387508653026e-05 -6.8445800740997637e-04 3.6589487994023360e-03  2.1685145928073524e-04 -8.2718769835663560e-04 3.7279911395740784e-03  4.5601794682712454e-04 -1.3180898894586599e-03 6.7390144852420676e-03  3.8578575167644351e-04 -1.8074906428212194e-03 9.7701089088055477e-03  2.4903334220095671e-04 -2.0962295690955392e-03 1.1105121492651988e-02  2.3272263909059624e-04 -2.3168702994002294e-03 1.2210698924274106e-02  2.1825565860600617e-04 -2.5353008245461357e-03 1.3538771302180225e-02  1.4559045965317595e-04 -2.7118419956099087e-03 1.4646884862887250e-02  -1.9517671192013972e-05 -2.8892169944801076e-03 1.5604731145598297e-02  -4.6739029468115202e-04 -3.3977858697994130e-03 1.6169930362851824e-02  0.0000000000000000e+00 0.0000000000000000e+00 0.0000000000000000e+00  -3.2637699587454398e-04 4.8350017155325027e-04 -1.3112606527466860e-03  -3.5474214620509497e-04 9.4228323486114846e-04 -3.1609130840379836e-03  -1.9098050889762081e-04 1.2340194660187826e-03 -4.5219163394169528e-03  7.1541412528114531e-05 1.2302219658578745e-03 -4.7612152344879326e-03  3.4381866502558079e-04 8.9696245833824969e-04 -3.6531915962732973e-03  5.1034491528327780e-04 3.2512714541772629e-04 -1.2690301863489337e-03  4.2400928793968223e-04 -2.2061334534182091e-04 1.4476761286463323e-03  1.3641322273459617e-04 -4.5400341128185528e-04 2.5601991287819742e-03  -9.8776024651316772e-06 -4.3901269898206138e-04 1.9640729507948654e-03  1.3821005218140684e-04 -5.2180387432222697e-04 1.8812541757284587e-03  3.0492676247368289e-04 -8.2344466547868138e-04 3.3509075149115346e-03  2.6769529826173045e-04 -1.1349387155110949e-03 4.8969257388222914e-03  1.7151031786794585e-04 -1.3240411560403252e-03 5.5519988236444693e-03  1.5654443700506164e-04 -1.4669493052728304e-03 6.0897150509094779e-03  1.5116066717074837e-04 -1.6074657209260237e-03 6.7773366248097683e-03  1.1387459998211904e-04 -1.7235258629419168e-03 7.3706707850457725e-03  5.6065855342311552e-05 -1.8206949002502583e-03 7.9295962792707616e-03  -4.7348686853719785e-04 -2.2536829763108259e-03 8.5256472189216524e-03  0.0000000000000000e+00 0.0000000000000000e+00 0.0000000000000000e+00  2.9530207266492354e-06 -4.7759503967748595e-07 8.6757531538595358e-06  5.9425436487710907e-06 -1.5958543445264733e-06 3.4455854657374665e-05  8.7556852524756989e-06 -3.3418085804500114e-06 7.6738631056758779e-05  1.1382678565812642e-05 -5.6729548624905444e-06 1.3454164882888047e-04  1.3795681307671222e-05 -8.5446643421818895e-06 2.0671172650031032e-04  1.5969397257111527e-05 -1.1908518437030102e-05 2.9192707279395531e-04  1.7888953136168057e-05 -1.5712250382833002e-05 3.8873989019302290e-04  1.9554741398409099e-05 -1.9901690857933278e-05 4.9566550541982216e-04  2.0978137255354968e-05 -2.4423387924299959e-05 6.1128171051360008e-04  2.2170263506127941e-05 -2.9226256262721541e-05 7.3425329066885479e-04  2.3137958320648852e-05 -3.4261306101071895e-05 8.6328426048165650e-04  2.3891224049512696e-05 -3.9481099843044907e-05 9.9710526913300178e-04  2.4448988786248382e-05 -4.4841021064122282e-05 1.1345340461225253e-03  2.4836045342297697e-05 -5.0301561308101810e-05 1.2745289837081751e-03  2.5079698681379667e-05 -5.5829474011299670e-05 1.4161987438762432e-03  2.5210481521611420e-05 -6.1397940154733627e-05 1.5588156115245012e-03  2.5262492108904875e-05 -6.6987375982154143e-05 1.7018397966885471e-03  2.5272633912248636e-05 -7.2586630075367842e-05 1.8449388046858721e-03  0.0000000000000000e+00 0.0000000000000000e+00 0.0000000000000000e+00  2.9854381226745773e-06 -7.3019324428748316e-07 8.5341765068671886e-06  6.1706161629732441e-06 -1.8164650556260487e-06 3.4300559147604642e-05  9.1478207635457568e-06 -3.5482480586483493e-06 7.6571768453330180e-05  1.1929525350067155e-05 -5.8639143438415094e-06 1.3436488162505032e-04  1.4486793610119376e-05 -8.7179687386233410e-06 2.0652643530167972e-04  1.6792893692011495e-05 -1.2062494655552341e-05 2.9173398449914369e-04  1.8831418712131058e-05 -1.5846411461263258e-05 3.8853956499177865e-04  2.0601744937920155e-05 -2.0016795536165385e-05 4.9545897826858631e-04  2.2115444494263517e-05 -2.4520567240609016e-05 6.1107068467798631e-04  2.3384655738308164e-05 -2.9306155887150038e-05 7.3403966382399168e-04  2.4416814090260693e-05 -3.4324388832955768e-05 8.6306958753651244e-04  2.5221953252198336e-05 -3.9528473741253676e-05 9.9689077669484196e-04  2.5819532976120846e-05 -4.4874498007635487e-05 1.1343208774846386e-03  2.6235707604513302e-05 -5.0323197207559418e-05 1.2743180287368558e-03  2.6499301246008114e-05 -5.5841491347483557e-05 1.4159902330017806e-03  2.6642390167638368e-05 -6.1402838982035611e-05 1.5586089321877796e-03  2.6700903378274772e-05 -6.6987824400288704e-05 1.7016335079320908e-03  2.6713592434219354e-05 -7.2585048655941496e-05 1.8447314423117851e-03  0.0000000000000000e+00 0.0000000000000000e+00 0.0000000000000000e+00  -3.6776575419644156e-04 -4.7410154808248244e-04 -1.8826338078552522e-03  -3.6036199134495400e-04 -9.2168282585266539e-04 -3.7654259145410173e-03  -1.7382265929044826e-04 -1.2338394419150482e-03 -4.8762728535558415e-03  9.9380326186578115e-05 -1.2643134264637848e-03 -4.7127703447625959e-03  3.6400440330946668e-04 -9.7525984859227633e-04 -3.2163442284019587e-03  5.0680109170907445e-04 -4.4702524523235079e-04 -6.8883322544202293e-04  3.9372364084710939e-04 9.5131138719898898e-05 1.7753674836033118e-03  1.0305268694119857e-04 3.6614913516196286e-04 2.5046135830911597e-03  -2.1802202639548274e-05 3.6083149529851822e-04 1.8262383890036964e-03  1.4147041965308186e-04 3.9331860917312490e-04 1.9612996769553174e-03  2.9895058670115042e-04 6.4264735573669747e-04 3.5480796842851272e-03  2.5594950141833778e-04 9.4864515688011287e-04 4.9970754877686346e-03  1.8092432313873032e-04 1.1618353933167081e-03 5.6443056349530993e-03  1.9007270675966667e-04 1.3391268399307146e-03 6.3670312174061551e-03  1.9206755057846113e-04 1.5241030909749645e-03 7.2822293026711220e-03  1.4312003249349089e-04 1.6941089143154946e-03 8.0606669224197805e-03  5.4480017841990282e-05 1.8937367038422144e-03 8.6811631673530797e-03  -3.7683007383087239e-04 2.2733149120994205e-03 8.4735330135029055e-03  0.0000000000000000e+00 0.0000000000000000e+00 0.0000000000000000e+00  -5.3281888587045350e-04 -7.5341867288708465e-04 -3.9970226777859734e-03  -5.5383321905645320e-04 -1.5748380360572768e-03 -8.1157156695774151e-03  -2.7913977288433013e-04 -2.1655631562206464e-03 -1.0685264472815348e-02  1.2833345082453098e-04 -2.2723422240741747e-03 -1.0585983415672216e-02  5.2680463991859377e-04 -1.8096114849793089e-03 -7.6216590940085694e-03  7.4965824679041975e-04 -8.9839383495220323e-04 -2.4427911442958818e-03  5.9067411862824667e-04 8.4165993239155830e-05 2.7470963031156295e-03  1.4539248135598211e-04 6.2590259355386189e-04 4.5952901418317739e-03  -6.2138149571448157e-05 6.6159082895621681e-04 3.4697604286307113e-03  1.8514539468212821e-04 7.1199647191707834e-04 3.6289538625706498e-03  4.4028256900971365e-04 1.1314056340990062e-03 6.6501328083815080e-03  3.7607440460195177e-04 1.6805057408922732e-03 9.6569328616425421e-03  2.5072260862695671e-04 2.0814603930129965e-03 1.1131938958829565e