<?xml version="1.0"?>
<VTKFile type="UnstructuredGrid"  version="0.1"  >
<UnstructuredGrid>
<Piece  NumberOfPoints="760" NumberOfCells="3024">
<Points>
<DataArray  type="Float64"  NumberOfComponents="3"  format="ascii">0 0 0  0.05555555555555555 0 0  0.1111111111111111 0 0  0.1666666666666667 0 0  0.2222222222222222 0 0  0.2777777777777778 0 0  0.3333333333333333 0 0  0.3888888888888889 0 0  0.4444444444444444 0 0  0.5 0 0  0.5555555555555556 0 0  0.6111111111111112 0 0  0.6666666666666666 0 0  0.7222222222222222 0 0  0.7777777777777778 0 0  0.8333333333333334 0 0  0.8888888888888888 0 0  0.9444444444444444 0 0  1 0 0  0 0.01428571428571429 0  0.05555555555555555 0.01428571428571429 0  0.1111111111111111 0.01428571428571429 0  0.1666666666666667 0.01428571428571429 0  0.2222222222222222 0.01428571428571429 0  0.2777777777777778 0.01428571428571429 0  0.3333333333333333 0.01428571428571429 0  0.3888888888888889 0.01428571428571429 0  0.4444444444444444 0.01428571428571429 0  0.5 0.01428571428571429 0  0.5555555555555556 0.01428571428571429 0  0.6111111111111112 0.01428571428571429 0  0.6666666666666666 0.01428571428571429 0  0.7222222222222222 0.01428571428571429 0  0.7777777777777778 0.01428571428571429 0  0.8333333333333334 0.01428571428571429 0  0.8888888888888888 0.01428571428571429 0  0.9444444444444444 0.01428571428571429 0  1 0.01428571428571429 0  0 0.02857142857142857 0  0.05555555555555555 0.02857142857142857 0  0.1111111111111111 0.02857142857142857 0  0.1666666666666667 0.02857142857142857 0  0.2222222222222222 0.02857142857142857 0  0.2777777777777778 0.02857142857142857 0  0.3333333333333333 0.02857142857142857 0  0.3888888888888889 0.02857142857142857 0  0.4444444444444444 0.02857142857142857 0  0.5 0.02857142857142857 0  0.5555555555555556 0.02857142857142857 0  0.6111111111111112 0.02857142857142857 0  0.6666666666666666 0.02857142857142857 0  0.7222222222222222 0.02857142857142857 0  0.7777777777777778 0.02857142857142857 0  0.8333333333333334 0.02857142857142857 0  0.8888888888888888 0.02857142857142857 0  0.9444444444444444 0.02857142857142857 0  1 0.02857142857142857 0  0 0.04285714285714286 0  0.05555555555555555 0.04285714285714286 0  0.1111111111111111 0.04285714285714286 0  0.1666666666666667 0.04285714285714286 0  0.2222222222222222 0.04285714285714286 0  0.2777777777777778 0.04285714285714286 0  0.3333333333333333 0.04285714285714286 0  0.3888888888888889 0.04285714285714286 0  0.4444444444444444 0.04285714285714286 0  0.5 0.04285714285714286 0  0.5555555555555556 0.04285714285714286 0  0.6111111111111112 0.04285714285714286 0  0.6666666666666666 0.04285714285714286 0  0.7222222222222222 0.04285714285714286 0  0.7777777777777778 0.04285714285714286 0  0.8333333333333334 0.04285714285714286 0  0.8888888888888888 0.04285714285714286 0  0.9444444444444444 0.04285714285714286 0  1 0.04285714285714286 0  0 0.05714285714285715 0  0.05555555555555555 0.05714285714285715 0  0.1111111111111111 0.05714285714285715 0  0.1666666666666667 0.05714285714285715 0  0.2222222222222222 0.05714285714285715 0  0.2777777777777778 0.05714285714285715 0  0.3333333333333333 0.05714285714285715 0  0.3888888888888889 0.05714285714285715 0  0.4444444444444444 0.05714285714285715 0  0.5 0.05714285714285715 0  0.5555555555555556 0.05714285714285715 0  0.6111111111111112 0.05714285714285715 0  0.6666666666666666 0.05714285714285715 0  0.7222222222222222 0.05714285714285715 0  0.7777777777777778 0.05714285714285715 0  0.8333333333333334 0.05714285714285715 0  0.8888888888888888 0.05714285714285715 0  0.9444444444444444 0.05714285714285715 0  1 0.05714285714285715 0  0 0.07142857142857142 0  0.05555555555555555 0.07142857142857142 0  0.1111111111111111 0.07142857142857142 0  0.1666666666666667 0.07142857142857142 0  0.2222222222222222 0.07142857142857142 0  0.2777777777777778 0.07142857142857142 0  0.3333333333333333 0.07142857142857142 0  0.3888888888888889 0.07142857142857142 0  0.4444444444444444 0.07142857142857142 0  0.5 0.07142857142857142 0  0.5555555555555556 0.07142857142857142 0  0.6111111111111112 0.07142857142857142 0  0.6666666666666666 0.07142857142857142 0  0.7222222222222222 0.07142857142857142 0  0.7777777777777778 0.07142857142857142 0  0.8333333333333334 0.07142857142857142 0  0.8888888888888888 0.07142857142857142 0  0.9444444444444444 0.07142857142857142 0  1 0.07142857142857142 0  0 0.08571428571428573 0  0.05555555555555555 0.08571428571428573 0  0.1111111111111111 0.08571428571428573 0  0.1666666666666667 0.08571428571428573 0  0.2222222222222222 0.08571428571428573 0  0.2777777777777778 0.08571428571428573 0  0.3333333333333333 0.08571428571428573 0  0.3888888888888889 0.08571428571428573 0  0.4444444444444444 0.08571428571428573 0  0.5 0.08571428571428573 0  0.5555555555555556 0.08571428571428573 0  0.6111111111111112 0.08571428571428573 0  0.6666666666666666 0.08571428571428573 0  0.7222222222222222 0.08571428571428573 0  0.7777777777777778 0.08571428571428573 0  0.8333333333333334 0.08571428571428573 0  0.8888888888888888 0.08571428571428573 0  0.9444444444444444 0.08571428571428573 0  1 0.08571428571428573 0  0 0.1 0  0.05555555555555555 0.1 0  0.1111111111111111 0.1 0  0.1666666666666667 0.1 0  0.2222222222222222 0.1 0  0.2777777777777778 0.1 0  0.3333333333333333 0.1 0  0.3888888888888889 0.1 0  0.4444444444444444 0.1 0  0.5 0.1 0  0.5555555555555556 0.1 0  0.6111111111111112 0.1 0  0.6666666666666666 0.1 0  0.7222222222222222 0.1 0  0.7777777777777778 0.1 0  0.8333333333333334 0.1 0  0.8888888888888888 0.1 0  0.9444444444444444 0.1 0  1 0.1 0  0 0 0.01  0.05555555555555555 0 0.01  0.1111111111111111 0 0.01  0.1666666666666667 0 0.01  0.2222222222222222 0 0.01  0.2777777777777778 0 0.01  0.3333333333333333 0 0.01  0.3888888888888889 0 0.01  0.4444444444444444 0 0.01  0.5 0 0.01  0.5555555555555556 0 0.01  0.6111111111111112 0 0.01  0.6666666666666666 0 0.01  0.7222222222222222 0 0.01  0.7777777777777778 0 0.01  0.8333333333333334 0 0.01  0.8888888888888888 0 0.01  0.9444444444444444 0 0.01  1 0 0.01  0 0.01428571428571429 0.01  0.05555555555555555 0.01428571428571429 0.01  0.1111111111111111 0.01428571428571429 0.01  0.1666666666666667 0.01428571428571429 0.01  0.2222222222222222 0.01428571428571429 0.01  0.2777777777777778 0.01428571428571429 0.01  0.3333333333333333 0.01428571428571429 0.01  0.3888888888888889 0.01428571428571429 0.01  0.4444444444444444 0.01428571428571429 0.01  0.5 0.01428571428571429 0.01  0.5555555555555556 0.01428571428571429 0.01  0.6111111111111112 0.01428571428571429 0.01  0.6666666666666666 0.01428571428571429 0.01  0.7222222222222222 0.01428571428571429 0.01  0.7777777777777778 0.01428571428571429 0.01  0.8333333333333334 0.01428571428571429 0.01  0.8888888888888888 0.01428571428571429 0.01  0.9444444444444444 0.01428571428571429 0.01  1 0.01428571428571429 0.01  0 0.02857142857142857 0.01  0.05555555555555555 0.02857142857142857 0.01  0.1111111111111111 0.02857142857142857 0.01  0.1666666666666667 0.02857142857142857 0.01  0.2222222222222222 0.02857142857142857 0.01  0.2777777777777778 0.02857142857142857 0.01  0.3333333333333333 0.02857142857142857 0.01  0.3888888888888889 0.02857142857142857 0.01  0.4444444444444444 0.02857142857142857 0.01  0.5 0.02857142857142857 0.01  0.5555555555555556 0.02857142857142857 0.01  0.6111111111111112 0.02857142857142857 0.01  0.6666666666666666 0.02857142857142857 0.01  0.7222222222222222 0.02857142857142857 0.01  0.7777777777777778 0.02857142857142857 0.01  0.8333333333333334 0.02857142857142857 0.01  0.8888888888888888 0.02857142857142857 0.01  0.9444444444444444 0.02857142857142857 0.01  1 0.02857142857142857 0.01  0 0.04285714285714286 0.01  0.05555555555555555 0.04285714285714286 0.01  0.1111111111111111 0.04285714285714286 0.01  0.1666666666666667 0.04285714285714286 0.01  0.2222222222222222 0.04285714285714286 0.01  0.2777777777777778 0.04285714285714286 0.01  0.3333333333333333 0.04285714285714286 0.01  0.3888888888888889 0.04285714285714286 0.01  0.4444444444444444 0.04285714285714286 0.01  0.5 0.04285714285714286 0.01  0.5555555555555556 0.04285714285714286 0.01  0.6111111111111112 0.04285714285714286 0.01  0.6666666666666666 0.04285714285714286 0.01  0.7222222222222222 0.04285714285714286 0.01  0.7777777777777778 0.04285714285714286 0.01  0.8333333333333334 0.04285714285714286 0.01  0.8888888888888888 0.04285714285714286 0.01  0.9444444444444444 0.04285714285714286 0.01  1 0.04285714285714286 0.01  0 0.05714285714285715 0.01  0.05555555555555555 0.05714285714285715 0.01  0.1111111111111111 0.05714285714285715 0.01  0.1666666666666667 0.05714285714285715 0.01  0.2222222222222222 0.05714285714285715 0.01  0.2777777777777778 0.05714285714285715 0.01  0.3333333333333333 0.05714285714285715 0.01  0.3888888888888889 0.05714285714285715 0.01  0.4444444444444444 0.05714285714285715 0.01  0.5 0.05714285714285715 0.01  0.5555555555555556 0.05714285714285715 0.01  0.6111111111111112 0.05714285714285715 0.01  0.6666666666666666 0.05714285714285715 0.01  0.7222222222222222 0.05714285714285715 0.01  0.7777777777777778 0.05714285714285715 0.01  0.8333333333333334 0.05714285714285715 0.01  0.8888888888888888 0.05714285714285715 0.01  0.9444444444444444 0.05714285714285715 0.01  1 0.05714285714285715 0.01  0 0.07142857142857142 0.01  0.05555555555555555 0.07142857142857142 0.01  0.1111111111111111 0.07142857142857142 0.01  0.1666666666666667 0.07142857142857142 0.01  0.2222222222222222 0.07142857142857142 0.01  0.2777777777777778 0.07142857142857142 0.01  0.3333333333333333 0.07142857142857142 0.01  0.3888888888888889 0.07142857142857142 0.01  0.4444444444444444 0.07142857142857142 0.01  0.5 0.07142857142857142 0.01  0.5555555555555556 0.07142857142857142 0.01  0.6111111111111112 0.07142857142857142 0.01  0.6666666666666666 0.07142857142857142 0.01  0.7222222222222222 0.07142857142857142 0.01  0.7777777777777778 0.07142857142857142 0.01  0.8333333333333334 0.07142857142857142 0.01  0.8888888888888888 0.07142857142857142 0.01  
[...]
<PointData  Vectors="f_36"> 
<DataArray  type="Float64"  Name="f_36"  NumberOfComponents="3" format="ascii">0.0000000000000000e+00 0.0000000000000000e+00 0.0000000000000000e+00  8.3002541887684464e-04 -3.4401133692825974e-03 1.2431820111074656e-02  -7.6472237599858244e-04 -3.5729646113170370e-03 1.2347107931769432e-02  -7.7649210507755586e-04 -2.5011793724318380e-03 7.2470738548893821e-03  -1.9967421835413604e-04 -2.1171731368537661e-03 6.2501618390922286e-03  -7.9539396486052376e-05 -1.9535266924143981e-03 5.8627095782577488e-03  -7.3452633418931212e-05 -1.7897975250070375e-03 5.4443998059750254e-03  -6.6326719788005229e-05 -1.6472481071769297e-03 5.1162690897073966e-03  -7.0659609343106235e-05 -1.4997140650494516e-03 4.7523178565301678e-03  -7.3405049258786075e-05 -1.3434656141275432e-03 4.3742413591248011e-03  -7.7252051527261866e-05 -1.1802547386841771e-03 3.9773062997021718e-03  -7.7009990235834161e-05 -1.0118819129907783e-03 3.5644084730202686e-03  -8.4247238444092726e-05 -8.3440976389484076e-04 3.1487107950192586e-03  -8.8214792972291108e-05 -6.4774449305790658e-04 2.6686772439837212e-03  -9.9502372336358303e-05 -4.5269755410427370e-04 2.3326808502106508e-03  -2.1333624526573202e-04 -1.1155589158704325e-04 1.5778621411625686e-03  3.8134560367172004e-04 5.1509859002118525e-05 -2.9679236300714386e-04  1.2809346730735319e-03 -6.9180755505274336e-04 2.2440950969651770e-03  1.6676067693850961e-03 -1.2443188756222014e-03 5.7674271288239180e-03  0.0000000000000000e+00 0.0000000000000000e+00 0.0000000000000000e+00  1.1036811703908425e-03 -3.1467963795957319e-03 9.1036018079520779e-03  -5.7400853452596883e-04 -3.4208741781240884e-03 9.0784490184345132e-03  -8.1180056596467302e-04 -2.4145754463294434e-03 5.0109399663342989e-03  -2.1186594055029563e-04 -2.0008058468364708e-03 4.2865867904966813e-03  -8.0359532408176554e-05 -1.8407063816828974e-03 4.0733198832102442e-03  -8.1480064176556795e-05 -1.6900424644335455e-03 3.7768899206373132e-03  -7.3322924241708842e-05 -1.5610953193744806e-03 3.5533238321361414e-03  -7.8546540957090147e-05 -1.4288526324542495e-03 3.2992199564470283e-03  -8.2124206054143259e-05 -1.2889126637293457e-03 3.0344128017943030e-03  -8.6129830121289011e-05 -1.1427148255811087e-03 2.7565431665307798e-03  -8.7733365368959868e-05 -9.9205163943445556e-04 2.4659313767677609e-03  -9.2661969678626484e-05 -8.3344085211446218e-04 2.1770895297038529e-03  -9.7843154348613485e-05 -6.6749997488717728e-04 1.8396150283394880e-03  -1.0493908938862490e-04 -4.9919282741037391e-04 1.6353443854756843e-03  -2.0881524302401939e-04 -1.9077957498509461e-04 1.1550683916510803e-03  2.2628471541405080e-04 6.1632033526893205e-06 -5.3226827599523060e-04  1.1096554193002670e-03 -6.8205140667845830e-04 1.2735813554490400e-03  1.5345453650221993e-03 -1.2600707595213734e-03 4.3495400112196683e-03  0.0000000000000000e+00 0.0000000000000000e+00 0.0000000000000000e+00  7.6347208570249649e-04 -2.2082663182675182e-03 4.4884966522651592e-03  -2.9145908212306913e-04 -2.4511571901933435e-03 4.5191534770424834e-03  -5.2249728930656115e-04 -1.6885969418432795e-03 2.3364692001172048e-03  -1.4305930978202511e-04 -1.3611186069797040e-03 1.9728405253860060e-03  -5.2190240502810768e-05 -1.2526827104484455e-03 1.8991361230732344e-03  -5.5938920779046297e-05 -1.1538519456778024e-03 1.7539222692602671e-03  -5.0763818475912820e-05 -1.0691681886504641e-03 1.6475681294928896e-03  -5.4482675891573136e-05 -9.8206344412950946e-04 1.5235682303259808e-03  -5.7367453208095138e-05 -8.8982935230433953e-04 1.3935620284509630e-03  -6.0060564034528241e-05 -7.9335360872489743e-04 1.2570809610828639e-03  -6.1909779810477523e-05 -6.9393283084078188e-04 1.1133327376961428e-03  -6.4412253283662564e-05 -5.8993804975094905e-04 9.7145302084381577e-04  -6.6963556388947463e-05 -4.8167960076659310e-04 8.0330900388436927e-04  -7.3162485264120731e-05 -3.8021439942877199e-04 7.1440460383770832e-04  -1.3578678241885843e-04 -1.6963963912971925e-04 5.2809826312301791e-04  9.1008931354703748e-05 3.5922575033724988e-05 -4.8161076959443515e-04  6.4685948831326207e-04 -4.3917485457060614e-04 3.7226389360520791e-04  9.0389783254803732e-04 -9.8479922779397353e-04 2.1039706631317129e-03  0.0000000000000000e+00 0.0000000000000000e+00 0.0000000000000000e+00  1.2709151145560525e-06 -3.3182222162423514e-07 2.1293307994005743e-06  2.3074271511239654e-06 -1.1607587215737651e-06 7.4850383539691649e-06  3.1618119831595771e-06 -2.4270326891289096e-06 1.5573799911990444e-05  3.8639632871144199e-06 -4.0671133910280990e-06 2.5935763741575457e-05  4.4316824209758171e-06 -6.0253820527273621e-06 3.8154169819865060e-05  4.8827598079024972e-06 -8.2502519487919269e-06 5.1861496473747005e-05  5.2347063389521319e-06 -1.0696033977147546e-05 6.6743086868544687e-05  5.5038063884536992e-06 -1.3322082901627346e-05 8.2532699307908105e-05  5.7051278165876612e-06 -1.6092629345140751e-05 9.9009677218851879e-05  5.8523468152833680e-06 -1.8976645969423777e-05 1.1599504871114783e-04  5.9576761400180850e-06 -2.1947570345812772e-05 1.3334746937830372e-04  6.0317872752067702e-06 -2.4983035283404610e-05 1.5095896158528121e-04  6.0838124672583837e-06 -2.8064669887388302e-05 1.6875044430862525e-04  6.1211471724498467e-06 -3.1177795095394475e-05 1.8666750952433926e-04  6.1499565430643898e-06 -3.4310709724809455e-05 2.0467430468581286e-04  6.1756488415006509e-06 -3.7455593155456345e-05 2.2275339324321310e-04  6.1947440177362309e-06 -4.0607915403669403e-05 2.4090470658206896e-04  6.2012649468877574e-06 -4.3762698743608966e-05 2.5909218684028721e-04  0.0000000000000000e+00 0.0000000000000000e+00 0.0000000000000000e+00  1.3156044301454450e-06 -3.9608912427256477e-07 2.1048040833305286e-06  2.4921515849275953e-06 -1.2133003595745319e-06 7.4437486673761834e-06  3.4653488591237367e-06 -2.4708913935769954e-06 1.5522578102248152e-05  4.2696244768300432e-06 -4.1028818459236016e-06 2.5876702456881441e-05  4.9240655140401130e-06 -6.0538676993776670e-06 3.8088452263625529e-05  5.4476594778273909e-06 -8.2724800004833995e-06 5.1790083163207553e-05  5.8594437644148497e-06 -1.0712991297793517e-05 6.6666784186325144e-05  6.1770874570094311e-06 -1.3334702903877154e-05 8.2452200259719034e-05  6.4170282350424302e-06 -1.6101767582592749e-05 9.8925582303870750e-05  6.5942615856512222e-06 -1.8983072203236267e-05 1.1590786983990671e-04  6.7222585658629939e-06 -2.1951964596601664e-05 1.3325763906627233e-04  6.8128926359648003e-06 -2.4985985227242223e-05 1.5086683801642751e-04  6.8764310934108474e-06 -2.8066664377368375e-05 1.6865631809038700e-04  6.9213234149774656e-06 -3.1179233972558302e-05 1.8657162163046570e-04  6.9546010357779040e-06 -3.4312028945216849e-05 2.0457683344008115e-04  6.9827678023244638e-06 -3.7456883697709249e-05 2.2265462906873748e-04  7.0044666472536866e-06 -4.0608269236855515e-05 2.4080504292070355e-04  7.0127261659958648e-06 -4.3762302375592777e-05 2.5899179596121640e-04  0.0000000000000000e+00 0.0000000000000000e+00 0.0000000000000000e+00  5.9006448006984917e-04 2.3073542151559163e-03 4.9884075570634963e-03  -3.7524827713272737e-04 2.7232289398668509e-03 4.4626416654170191e-03  -4.2891688489344362e-04 1.9917729580736501e-03 2.2663117886807670e-03  -1.1670719413569227e-04 1.5531784861860345e-03 2.0899809093017480e-03  -5.4733371812099697e-05 1.3908106315128703e-03 1.9970552533414812e-03  -5.3563558631145664e-05 1.2888759886293586e-03 1.8631872343105149e-03  -5.2895201193340180e-05 1.1968317621527970e-03 1.7509046426977420e-03  -5.7534101877959419e-05 1.1000062395871721e-03 1.6195897229615709e-03  -6.0704189049129595e-05 9.9822810394597128e-04 1.4825090606714697e-03  -6.4060159719001134e-05 8.9119424323597096e-04 1.3372940446010808e-03  -6.5266148732641283e-05 7.7914004929233865e-04 1.1859296265602790e-03  -6.9951332722438341e-05 6.6439813471923898e-04 1.0336496928275447e-03  -7.1498494130086538e-05 5.4597119276899046e-04 8.5378251217004789e-04  -7.2200170795696088e-05 4.1565612969371435e-04 7.5441961310001259e-04  -1.6065736458895259e-04 1.7827708106781071e-04 5.3790162637793685e-04  6.0682239006926629e-05 -1.5195236128099228e-04 -3.8464013070981299e-04  5.7988070669193529e-04 1.3343702068566176e-04 2.1946801916611472e-04  6.8653205161118083e-04 6.1553324344938763e-04 1.8292337987833452e-03  0.0000000000000000e+00 0.0000000000000000e+00 0.0000000000000000e+00  1.0527038762468178e-03 2.9392445444621777e-03 9.4763948034289978e-03  -5.8704952726004809e-04 3.7647047191751229e-03 8.9461873282117767e-03  -7.4198908200718899e-04 2.9200968350110309e-03 4.9667685818405201e-03  -1.7895048472817775e-04 2.2778619687089455e-03 4.4382785494365990e-03  -7.9957317181051572e-05 2.0110813635392344e-03 4.2127581010665202e-03  -8.6830337058542366e-05 1.8593949351760179e-03 3.9293724903047850e-03  -8.2599257141875148e-05 1.7308389899029154e-03 3.7058992705693897e-03  -9.0215401647619273e-05 1.5984818230000463e-03 3.4492507758594206e-03  -9.4941349332222828e-05 1.4600394443600782e-03 3.1821652564815906e-03  -9.9857296830284137e-05 1.3146235898002885e-03 2.9006659931817107e-03  -1.0212121191016534e-04 1.1619184513008696e-03 2.6064264836399582e-03  -1.0821368443641286e-04 1.0060207129481383e-03 2.3111518080989051e-03  -1.1196605858904810e-04 8.4513189188549682e-04 1.9716572272977665e-03  -1.0753092723122771e-04 6.5734390318023862e-04 1.7290042609749156e-03  -2.3331447045649002e-04 3.1948790559624927e-04 1.2559497118906193e-03  6.6019020684083142e-05 -1.4638664471083198e-04 -4.2003527476595112e-04  9.0843664194775622e-04 2.3005882894486037e-04 7.6052336233927798e-04  1.2800332711962090e-03 9.5094049281415672e-04 3.6734737547299565e-03  0.0000000000000000e+00 0.0000000000000000e+00 0.0000000000000000e+00  1.3709613791383873e-03 2.9233630475511171e-03 1.2289740976124581e-02  -5.6119432037434955e-04 3.9633345978794011e-03 1.2384774301629719e-02  -8.9306691385675262e-04 3.1697714696697732e-03 7.4511972247858641e-03  -1.7563279989541767e-04 2.4891583400260251e-03 6.4703303565828586e-03  -6.5087071293968703e-05 2.1821810717173309e-03 6.0711385810607804e-03  -8.8880648965087211e-05 2.0098438358937235e-03 5.6417814722850507e-03  -8.0983033062732829e-05 1.8704130114194973e-03 5.3160443072062576e-03  -8.9159792505186399e-05 1.7300295027828773e-03 4.9534789162693276e-03  -9.3958401142694905e-05 1.5837256432629776e-03 4.5757279450986520e-03  -9.8572298337650365e-05 1.4302687123995473e-03 4.1789913093616942e-03  -1.0126920590557095e-04 1.2689209888628373e-03 3.7636011423112649e-03  -1.0604014914916900e-04 1.1041784422757956e-03 3.3450349545480389e-03  -1.1059109314256480e-04 9.3364674103782062e-04 2.8751950015736753e-03  -9.2271450018348118e-05 7.3402245083598570e-04 2.4721968077570681e-03  -2.0166014696636851e-04 3.8033649147554781e-04 1.7680393999399547e-03  -1.3300113415828778e-05 -1.4643109672777134e-04 -3.6649876268607455e-04  9.0785784957251063e-04 1.9096983162157825e-04 1.1196082657762097e-03  1.5085657304883798e-03 9.5667521171954536e-04 5.0251893599209735e-03  0.0000000000000000e+00 0.0000000000000000e+00 0.0000000000000000e+00  2.7725459471808343e-04 -1.4659516143584483e-03 1.2243854219087455e-02  -3.5626644837710904e-04 -1.6595414433298740e-03 1.2330955837821482e-02  -4.0497628565110757e-04 -1.1576229302912985e-03 7.1987876952042482e-03  -1.0547872002621048e-04 -9.6735944146243474e-04 6.1732064959314189e-03  -2.4951107587666453e-05 -9.0839927989203885e-04 5.8086019396773108e-03  -2.6859009401859081e-05 -8.2775874559037541e-04 5.3952762002183376e-03  -2.2055275778790003e-05 -7.5716916795496268e-04 5.0703185226040762e-03  -2.3459213238250561e-05 -6.8574036281770915e-04 4.7106561238281046e-03  -2.4114685850881896e-05 -6.0863101820770042e-04 4.3364638173426324e-03  -2.5643963266660858e-05 -5.2814183944625815e-04 3.9436605194273951e-03  -2.4749995550252997e-05 -4.4507453380012048e-04 3.5348411770723571e-03  -2.7483211734454698e-05 -3.5693344396357194e-04 3.1242316358589752e-03  -3.6505279644748916e-05 -2.6543265495982657e-04 2.6475155739097995e-03  -2.1778384240680930e-05 -1.8142751775098332e-04 2.3180521976288531e-03  -3.5227947427994653e-05 -1.4458072631766466e-05 1.5792646823612182e-03  2.3481360161724981e-04 1.2253454947254943e-04 -3.4190035018104699e-04  6.9065793504458702e-04 -1.9674780176170937e-04 2.1275436643143752e-03  9.8117079990910267e-04 -4.6378960987914012e-04 5.6351433340980127e-03  0.0000000000000000e+00 0.0000000000000000e+00 0.0000000000000000e+00  4.3747457699396843e-04 -1.2876515831969856e-03 8.9705930093580358e-03  -2.7233983612225051e-04 -1.4750611225499289e-03 9.0788871741990119e-03  -4.2965617544816689e-04 -1.0580228719758316e-03 4.9533361949139149e-03  -1.2162113004797638e-04 -8.7247684533418195e-04 4.1963041150354045e-03  -2.9936797363673426e-05 -8.0967733796481376e-04 4.0127785549695779e-03  -3.6122115174787409e-05 -7.3749488247325983e-04 3.7261583441323908e-03  -3.1540638304399448e-05 -6.7497375365598098e-04 3.5087637832038636e-03  -3.3376888117981962e-05 -6.1231071932443457e-04 3.2621216814355696e-03  -3.4986069224415886e-05 -5.4486836885576288e-04 3.0044669045625597e-03  -3.6708087006682988e-05 -4.7435299302430025e-04 2.7342871530033953e-03  -3.7288262170802442e-05 -4.0180700545361468e-04 2.4514663925854076e-03  -3.8962950016652277e-05 -3.2433947377651741e-04 2.1716154915063591e-03  -4.6384272006723503e-05 -2.4385976785526442e-04 1.8416959608306539e-03  -3.7799229883165064e-05 -1.7144463051664211e-04 1.6452361484563546e-03  -5.7159042240633815e-05 -3.2321161948439777e-05 1.1850936719268600e-03  1.6949172725405743e-04 8.2954909431378002e-05 -5.3520223019518380e-04  6.3558237995565720e-04 -1.9253963571040235e-04 1.2206074459879762e-03  9.5081168307155101e-04 -4.2099427246862259e-04 4.3121529630085545e-03  0.0000000000000000e+00 0.0000000000000000e+00 0.0000000000000000e+00  3.3494979045682437e-04 -8.1555846534243947e-04 4.3132772819110760e-03  -1.3301111430212226e-04 -9.3363627092334469e-04 4.3908832229365979e-03  -2.8032342618493453e-04 -6.7528538754240525e-04 2.1795281167837611e-03  -8.7470780592833076e-05 -5.4976598485440204e-04 1.8087593046209774e-03  -2.2799026815786560e-05 -5.0523893517930235e-04 1.7679162960580093e-03  -2.8359233805190480e-05 -4.6195612795690925e-04 1.6382815195638053e-03  -2.5874864070304507e-05 -4.2536933227779023e-04 1.5423260175681513e-03  -2.7290088013222186e-05 -3.8876995689132943e-04 1.4293163597584647e-03  -2.8965017167750787e-05 -3.4959452295368041e-04 1.3102086720195886e-03  -3.0255425148151002e-05 -3.0857184993155834e-04 1.1852512362668240e-03  -3.1302779201035359e-05 -2.6651668525015302e-04 1.0533327052059270e-03  -3.2249884566010970e-05 -2.2166133697201811e-04 9.2437780723710235e-04  -3.5605228371503527e-05 -1.7453117943752952e-04 7.6916904516926264e-04  -3.3931456717050834e-05 -1.3323566295105977e-04 6.9388418303373679e-04  -4.9035254396861494e-05 -5.1863538882491488e-05 5.2949105098693959e-04  7.9853959054259277e-05 2.1392646517208609e-05 -4.9885364575431379e-04  3.8096564581674604e-04 -1.5695032949410102e-04 3.0572217690124108e-04  5.7590520321955537e-04 -3.1554327959684280e-04 2.0375968506809346e-03  0.0000000000000000e+00 0.0000000000000000e+00 0.0000000000000000e+00  5.7372856738010750e-07 -3.1826084259499763e-07 2.0757505633182307e-06  1.0760587922460923e-06 -1.1391183979401604e-06 7.4403913829037607e-06  1.4836707031402835e-06 -2.3971973323537580e-06 1.5536816588264403e-05  1.8179040855573522e-06 -4.0306565646029661e-06 2.5905410028194903e-05  2.0878484293420729e-06 -5.9831916004829170e-06 3.8129631027685502e-05  2.3019707290994418e-06 -8.2031559240944766e-06 5.1841968692029965e-05  2.4687316259123532e-06 -1.0644749761935837e-05 6.6727811630393739e-05  2.5959908236420739e-06 -1.3267242536460369e-05 8.2520975619277629e-05  2.6910151506212155e-06 -1.6034787209932548e-05 9.9000859286954438e-05  2.7603960563851865e-06 -1.8916280400135189e-05 1.1598855178064609e-04  2.8100121769749624e-06 -2.1885088714002061e-05 1.3334277247496640e-04  2.8449872131224246e-06 -2.4918777082433829e-05 1.5095561022459612e-04  2.8696930670785799e-06 -2.7998917151087527e-05 1.6874805107177992e-04  2.8876888520824274e-06 -3.1110765814024891e-05 1.8666576481467356e-04  2.9017831403387735e-06 -3.4242600062446647e-05 2.0467295470107680e-04  2.9144454676958548e-06 -3.7386657692434921e-05 2.2275224812041242e-04  2.9243700900165422e-06 -4.0538138748151203e-05 2.4090388373746111e-04  2.9281932068586160e-06 -4.3692221477026966e-05 2.5909142101641821e-04  0.0000000000000000e+00 0.0000000000000000e+00 0.0000000000000000e+00  6.8766403313542063e-07 -3.6703473138211587e-07 2.0368339422650406e-06  1.3218442593350766e-06 -1.1748943597303751e-06 7.3919340462239415e-06  1.8375247459533604e-06 -2.4264509677802885e-06 1.5479932210991846e-05  2.2643050882649154e-06 -4.0545231882166132e-06 2.5841561648838923e-05  2.6125876902039751e-06 -6.0022952185409410e-06 3.8059884502993739e-05  2.8920997466342396e-06 -8.2181556663557261e-06 5.1767215412258697e-05  3.1127206984987683e-06 -1.0656285652147819e-05 6.6648779348688601e-05  3.2836235776261395e-06 -1.3275915816303834e-05 8.2438287499794790e-05  3.4133459969590598e-06 -1.6041150604786859e-05 9.8915046730529600e-05  3.5096975967668543e-06 -1.8920832139574337e-05 1.1590006063894388e-04  3.5797089251232267e-06 -2.1888270250960097e-05 1.3325197238304553e-04  3.6295955393779643e-06 -2.4920970876914500e-05 1.5086280016917921e-04  3.6647527640216665e-06 -2.8000443362376482e-05 1.6865346569442904e-04  3.6896590758333007e-06 -3.1111886211109949e-05 1.8656959494659542e-04  3.7080113272413244e-06 -3.4243556510943357e-05 2.0457535050124795e-04  3.7231824837819061e-06 -3.7387528786664608e-05 2.2265341265848983e-04  3.7347591760623610e-06 -4.0538549485383962e-05 2.4080405660671582e-04  3.7393905477634023e-06 -4.3692204786168215e-05 2.5899115689089207e-04  0.0000000000000000e+00 0.0000000000000000e+00 0.0000000000000000e+00  3.2006060896673624e-04 7.7543925195475919e-04 4.6551831333107073e-03  -1.6021380088783422e-04 9.1541988361374359e-04 4.0069361740546813e-03  -2.5472229051327775e-04 6.9614773196639173e-04 1.8411673754268503e-03  -7.6016044097370936e-05 5.2884876263287629e-04 1.7532895817304545e-03  -2.6854745355289269e-05 4.5292265718290946e-04 1.7205642171838492e-03  -2.9520314318860502e-05 4.1708818149649695e-04 1.6112537382834066e-03  -2.9051992839514859e-05 3.8373457071889792e-04 1.5176838114044774e-03  -3.1915355020780245e-05 3.4756771835294041e-04 1.4051530767077158e-03  -3.3736432466030892e-05 3.1001361578565580e-04 1.2875481701180255e-03  -3.5725085297784048e-05 2.7039509178254829e-04 1.1628798210020319e-03  -3.6354141387437143e-05 2.2870387913471671e-04 1.0329397188989350e-03  -3.8321673058048017e-05 1.8629788264998157e-04 9.0319001710958502e-04  -4.2661945582036422e-05 1.4360924897256462e-04 7.4563717423575403e-04  -3.4577197679873811e-05 9.4085297355930140e-05 6.7100641796698072e-04  -5.9562071162263145e-05 6.4074737226079963e-06 5.0126570546013733e-04  3.8204229404170019e-05 -1.1860420662495961e-04 -3.8243481149991015e-04  3.2937208491695523e-04 -1.9245999129369496e-05 1.8132758742225137e-04  4.4112877353139453e-04 1.2061728210824928e-04 1.7264897920452502e-03  0.0000000000000000e+00 0.0000000000000000e+00 0.0000000000000000e+00  4.7161020234518951e-04 1.2350114390939954e-03 9.3146203173773510e-03  -2.4982854423832195e-04 1.6143028219938516e-03 8.8168865754594036e-03  -4.0921018541441117e-04 1.2911809420408686e-03 4.7581632657235510e-03  -1.0791233292501273e-04 9.8655161481125573e-04 4.2363500669789977e-03  -3.1919137351216559e-05 8.3746306294768264e-04 4.0625219868912002e-03  -4.5547500940731065e-05 7.6831564428638097e-04 3.7952742117156883e-03  -4.3475148704606069e-05 7.1001812202226185e-04 3.5805070752333934e-03  -4.7896464157665696e-05 6.4798418343778026e-04 3.3322649272914530e-03  -5.0683524405712040e-05 5.8373404897060798e-04 3.0731081075349677e-03  -5.3375804272135751e-05 5.1606451937954512e-04 2.8000660924481723e-03  -5.4633912581403976e-05 4.4461573095593151e-04 2.5145247486590108e-03  -5.6883262860342865e-05 3.7216988702918995e-04 2.2287971483797801e-03  -6.2722397502917735e-