<?xml version="1.0"?>
<VTKFile type="UnstructuredGrid"  version="0.1"  >
<UnstructuredGrid>
<Piece  NumberOfPoints="760" NumberOfCells="3024">
<Points>
<DataArray  type="Float64"  NumberOfComponents="3"  format="ascii">0 0 0  0.05555555555555555 0 0  0.1111111111111111 0 0  0.1666666666666667 0 0  0.2222222222222222 0 0  0.2777777777777778 0 0  0.3333333333333333 0 0  0.3888888888888889 0 0  0.4444444444444444 0 0  0.5 0 0  0.5555555555555556 0 0  0.6111111111111112 0 0  0.6666666666666666 0 0  0.7222222222222222 0 0  0.7777777777777778 0 0  0.8333333333333334 0 0  0.8888888888888888 0 0  0.9444444444444444 0 0  1 0 0  0 0.01428571428571429 0  0.05555555555555555 0.01428571428571429 0  0.1111111111111111 0.01428571428571429 0  0.1666666666666667 0.01428571428571429 0  0.2222222222222222 0.01428571428571429 0  0.2777777777777778 0.01428571428571429 0  0.3333333333333333 0.01428571428571429 0  0.3888888888888889 0.01428571428571429 0  0.4444444444444444 0.01428571428571429 0  0.5 0.01428571428571429 0  0.5555555555555556 0.01428571428571429 0  0.6111111111111112 0.01428571428571429 0  0.6666666666666666 0.01428571428571429 0  0.7222222222222222 0.01428571428571429 0  0.7777777777777778 0.01428571428571429 0  0.8333333333333334 0.01428571428571429 0  0.8888888888888888 0.01428571428571429 0  0.9444444444444444 0.01428571428571429 0  1 0.01428571428571429 0  0 0.02857142857142857 0  0.05555555555555555 0.02857142857142857 0  0.1111111111111111 0.02857142857142857 0  0.1666666666666667 0.02857142857142857 0  0.2222222222222222 0.02857142857142857 0  0.2777777777777778 0.02857142857142857 0  0.3333333333333333 0.02857142857142857 0  0.3888888888888889 0.02857142857142857 0  0.4444444444444444 0.02857142857142857 0  0.5 0.02857142857142857 0  0.5555555555555556 0.02857142857142857 0  0.6111111111111112 0.02857142857142857 0  0.6666666666666666 0.02857142857142857 0  0.7222222222222222 0.02857142857142857 0  0.7777777777777778 0.02857142857142857 0  0.8333333333333334 0.02857142857142857 0  0.8888888888888888 0.02857142857142857 0  0.9444444444444444 0.02857142857142857 0  1 0.02857142857142857 0  0 0.04285714285714286 0  0.05555555555555555 0.04285714285714286 0  0.1111111111111111 0.04285714285714286 0  0.1666666666666667 0.04285714285714286 0  0.2222222222222222 0.04285714285714286 0  0.2777777777777778 0.04285714285714286 0  0.3333333333333333 0.04285714285714286 0  0.3888888888888889 0.04285714285714286 0  0.4444444444444444 0.04285714285714286 0  0.5 0.04285714285714286 0  0.5555555555555556 0.04285714285714286 0  0.6111111111111112 0.04285714285714286 0  0.6666666666666666 0.04285714285714286 0  0.7222222222222222 0.04285714285714286 0  0.7777777777777778 0.04285714285714286 0  0.8333333333333334 0.04285714285714286 0  0.8888888888888888 0.04285714285714286 0  0.9444444444444444 0.04285714285714286 0  1 0.04285714285714286 0  0 0.05714285714285715 0  0.05555555555555555 0.05714285714285715 0  0.1111111111111111 0.05714285714285715 0  0.1666666666666667 0.05714285714285715 0  0.2222222222222222 0.05714285714285715 0  0.2777777777777778 0.05714285714285715 0  0.3333333333333333 0.05714285714285715 0  0.3888888888888889 0.05714285714285715 0  0.4444444444444444 0.05714285714285715 0  0.5 0.05714285714285715 0  0.5555555555555556 0.05714285714285715 0  0.6111111111111112 0.05714285714285715 0  0.6666666666666666 0.05714285714285715 0  0.7222222222222222 0.05714285714285715 0  0.7777777777777778 0.05714285714285715 0  0.8333333333333334 0.05714285714285715 0  0.8888888888888888 0.05714285714285715 0  0.9444444444444444 0.05714285714285715 0  1 0.05714285714285715 0  0 0.07142857142857142 0  0.05555555555555555 0.07142857142857142 0  0.1111111111111111 0.07142857142857142 0  0.1666666666666667 0.07142857142857142 0  0.2222222222222222 0.07142857142857142 0  0.2777777777777778 0.07142857142857142 0  0.3333333333333333 0.07142857142857142 0  0.3888888888888889 0.07142857142857142 0  0.4444444444444444 0.07142857142857142 0  0.5 0.07142857142857142 0  0.5555555555555556 0.07142857142857142 0  0.6111111111111112 0.07142857142857142 0  0.6666666666666666 0.07142857142857142 0  0.7222222222222222 0.07142857142857142 0  0.7777777777777778 0.07142857142857142 0  0.8333333333333334 0.07142857142857142 0  0.8888888888888888 0.07142857142857142 0  0.9444444444444444 0.07142857142857142 0  1 0.07142857142857142 0  0 0.08571428571428573 0  0.05555555555555555 0.08571428571428573 0  0.1111111111111111 0.08571428571428573 0  0.1666666666666667 0.08571428571428573 0  0.2222222222222222 0.08571428571428573 0  0.2777777777777778 0.08571428571428573 0  0.3333333333333333 0.08571428571428573 0  0.3888888888888889 0.08571428571428573 0  0.4444444444444444 0.08571428571428573 0  0.5 0.08571428571428573 0  0.5555555555555556 0.08571428571428573 0  0.6111111111111112 0.08571428571428573 0  0.6666666666666666 0.08571428571428573 0  0.7222222222222222 0.08571428571428573 0  0.7777777777777778 0.08571428571428573 0  0.8333333333333334 0.08571428571428573 0  0.8888888888888888 0.08571428571428573 0  0.9444444444444444 0.08571428571428573 0  1 0.08571428571428573 0  0 0.1 0  0.05555555555555555 0.1 0  0.1111111111111111 0.1 0  0.1666666666666667 0.1 0  0.2222222222222222 0.1 0  0.2777777777777778 0.1 0  0.3333333333333333 0.1 0  0.3888888888888889 0.1 0  0.4444444444444444 0.1 0  0.5 0.1 0  0.5555555555555556 0.1 0  0.6111111111111112 0.1 0  0.6666666666666666 0.1 0  0.7222222222222222 0.1 0  0.7777777777777778 0.1 0  0.8333333333333334 0.1 0  0.8888888888888888 0.1 0  0.9444444444444444 0.1 0  1 0.1 0  0 0 0.01  0.05555555555555555 0 0.01  0.1111111111111111 0 0.01  0.1666666666666667 0 0.01  0.2222222222222222 0 0.01  0.2777777777777778 0 0.01  0.3333333333333333 0 0.01  0.3888888888888889 0 0.01  0.4444444444444444 0 0.01  0.5 0 0.01  0.5555555555555556 0 0.01  0.6111111111111112 0 0.01  0.6666666666666666 0 0.01  0.7222222222222222 0 0.01  0.7777777777777778 0 0.01  0.8333333333333334 0 0.01  0.8888888888888888 0 0.01  0.9444444444444444 0 0.01  1 0 0.01  0 0.01428571428571429 0.01  0.05555555555555555 0.01428571428571429 0.01  0.1111111111111111 0.01428571428571429 0.01  0.1666666666666667 0.01428571428571429 0.01  0.2222222222222222 0.01428571428571429 0.01  0.2777777777777778 0.01428571428571429 0.01  0.3333333333333333 0.01428571428571429 0.01  0.3888888888888889 0.01428571428571429 0.01  0.4444444444444444 0.01428571428571429 0.01  0.5 0.01428571428571429 0.01  0.5555555555555556 0.01428571428571429 0.01  0.6111111111111112 0.01428571428571429 0.01  0.6666666666666666 0.01428571428571429 0.01  0.7222222222222222 0.01428571428571429 0.01  0.7777777777777778 0.01428571428571429 0.01  0.8333333333333334 0.01428571428571429 0.01  0.8888888888888888 0.01428571428571429 0.01  0.9444444444444444 0.01428571428571429 0.01  1 0.01428571428571429 0.01  0 0.02857142857142857 0.01  0.05555555555555555 0.02857142857142857 0.01  0.1111111111111111 0.02857142857142857 0.01  0.1666666666666667 0.02857142857142857 0.01  0.2222222222222222 0.02857142857142857 0.01  0.2777777777777778 0.02857142857142857 0.01  0.3333333333333333 0.02857142857142857 0.01  0.3888888888888889 0.02857142857142857 0.01  0.4444444444444444 0.02857142857142857 0.01  0.5 0.02857142857142857 0.01  0.5555555555555556 0.02857142857142857 0.01  0.6111111111111112 0.02857142857142857 0.01  0.6666666666666666 0.02857142857142857 0.01  0.7222222222222222 0.02857142857142857 0.01  0.7777777777777778 0.02857142857142857 0.01  0.8333333333333334 0.02857142857142857 0.01  0.8888888888888888 0.02857142857142857 0.01  0.9444444444444444 0.02857142857142857 0.01  1 0.02857142857142857 0.01  0 0.04285714285714286 0.01  0.05555555555555555 0.04285714285714286 0.01  0.1111111111111111 0.04285714285714286 0.01  0.1666666666666667 0.04285714285714286 0.01  0.2222222222222222 0.04285714285714286 0.01  0.2777777777777778 0.04285714285714286 0.01  0.3333333333333333 0.04285714285714286 0.01  0.3888888888888889 0.04285714285714286 0.01  0.4444444444444444 0.04285714285714286 0.01  0.5 0.04285714285714286 0.01  0.5555555555555556 0.04285714285714286 0.01  0.6111111111111112 0.04285714285714286 0.01  0.6666666666666666 0.04285714285714286 0.01  0.7222222222222222 0.04285714285714286 0.01  0.7777777777777778 0.04285714285714286 0.01  0.8333333333333334 0.04285714285714286 0.01  0.8888888888888888 0.04285714285714286 0.01  0.9444444444444444 0.04285714285714286 0.01  1 0.04285714285714286 0.01  0 0.05714285714285715 0.01  0.05555555555555555 0.05714285714285715 0.01  0.1111111111111111 0.05714285714285715 0.01  0.1666666666666667 0.05714285714285715 0.01  0.2222222222222222 0.05714285714285715 0.01  0.2777777777777778 0.05714285714285715 0.01  0.3333333333333333 0.05714285714285715 0.01  0.3888888888888889 0.05714285714285715 0.01  0.4444444444444444 0.05714285714285715 0.01  0.5 0.05714285714285715 0.01  0.5555555555555556 0.05714285714285715 0.01  0.6111111111111112 0.05714285714285715 0.01  0.6666666666666666 0.05714285714285715 0.01  0.7222222222222222 0.05714285714285715 0.01  0.7777777777777778 0.05714285714285715 0.01  0.8333333333333334 0.05714285714285715 0.01  0.8888888888888888 0.05714285714285715 0.01  0.9444444444444444 0.05714285714285715 0.01  1 0.05714285714285715 0.01  0 0.07142857142857142 0.01  0.05555555555555555 0.07142857142857142 0.01  0.1111111111111111 0.07142857142857142 0.01  0.1666666666666667 0.07142857142857142 0.01  0.2222222222222222 0.07142857142857142 0.01  0.2777777777777778 0.07142857142857142 0.01  0.3333333333333333 0.07142857142857142 0.01  0.3888888888888889 0.07142857142857142 0.01  0.4444444444444444 0.07142857142857142 0.01  0.5 0.07142857142857142 0.01  0.5555555555555556 0.07142857142857142 0.01  0.6111111111111112 0.07142857142857142 0.01  0.6666666666666666 0.07142857142857142 0.01  0.7222222222222222 0.07142857142857142 0.01  0.7777777777777778 0.07142857142857142 0.01  0.8333333333333334 0.07142857142857142 0.01  0.8888888888888888 0.07142857142857142 0.01  
[...]
<PointData  Vectors="f_36"> 
<DataArray  type="Float64"  Name="f_36"  NumberOfComponents="3" format="ascii">0.0000000000000000e+00 0.0000000000000000e+00 0.0000000000000000e+00  -2.3191217914905909e-03 3.7518919664778993e-03 -9.3651326444200121e-03  -1.8064545428181460e-03 7.0884204921385242e-03 -2.1258343328224096e-02  -5.8203414691344359e-04 8.4427928443359876e-03 -2.5082909838779636e-02  -2.3089547788073146e-04 8.8756100626340220e-03 -2.6252332249005399e-02  -1.4256782254041544e-04 9.0430513607632716e-03 -2.6870273302247394e-02  -1.2445248696688616e-04 9.1296635292807942e-03 -2.7303412883262573e-02  -1.2924731361053717e-04 9.2028873014231034e-03 -2.7742313026369161e-02  -1.3664702919269903e-04 9.2741841316907429e-03 -2.8200189442823549e-02  -1.4405743163691196e-04 9.3477558366932435e-03 -2.8684578065226327e-02  -1.5020554934046875e-04 9.4238958277369153e-03 -2.9191722108057039e-02  -1.5556834325016321e-04 9.5027186796181658e-03 -2.9717609561104127e-02  -1.5905543437927128e-04 9.5844956912023004e-03 -3.0261106919647781e-02  -1.6636551880920076e-04 9.6750247187327998e-03 -3.0814389483003322e-02  -1.7011669021144388e-04 9.7834407894725958e-03 -3.1434897569242226e-02  -2.7781255225887183e-04 9.9742478373385825e-03 -3.2021227926325446e-02  -5.5575841989442798e-04 1.0543765287295450e-02 -3.3616849737707781e-02  3.8809939214099501e-04 1.1097340071171458e-02 -3.6590168031081921e-02  1.4973678119701952e-03 1.1568609999540434e-02 -3.4213796329897038e-02  0.0000000000000000e+00 0.0000000000000000e+00 0.0000000000000000e+00  -2.1784046629382435e-03 3.1702897145140254e-03 -5.8071634035660466e-03  -1.9193894411549952e-03 6.2779126697158948e-03 -1.4588888788240930e-02  -6.1911163398964419e-04 7.6607964687819812e-03 -1.7296470143881696e-02  -2.2045940953387174e-04 8.1094905038575672e-03 -1.8005554351126985e-02  -1.3930599943039765e-04 8.2866538662042209e-03 -1.8471205745653113e-02  -1.1728457306153251e-04 8.3782954124924178e-03 -1.8819076310575916e-02  -1.2220684204430340e-04 8.4550707339694723e-03 -1.9187820784679354e-02  -1.2896882333912475e-04 8.5304465578577189e-03 -1.9577005350870175e-02  -1.3604219081077745e-04 8.6084662608272768e-03 -1.9990320316633246e-02  -1.4193937552506352e-04 8.6894955097062236e-03 -2.0423776291800557e-02  -1.4689653670558125e-04 8.7734988436893278e-03 -2.0873302309190590e-02  -1.5071147398285125e-04 8.8601729717180389e-03 -2.1337527281689556e-02  -1.5640152111824816e-04 8.9540682419287625e-03 -2.1804682054213313e-02  -1.6389886589870880e-04 9.0624881788690641e-03 -2.2315899584783371e-02  -2.3719440737443253e-04 9.2308794889260758e-03 -2.2749178958567678e-02  -5.2680661140510048e-04 9.7272981836700276e-03 -2.3802567955991477e-02  5.9422432888800538e-05 1.0277526087503713e-02 -2.6476886392821326e-02  1.5090962604264676e-03 1.1045805512568872e-02 -2.5140601520186608e-02  0.0000000000000000e+00 0.0000000000000000e+00 0.0000000000000000e+00  -1.3106620316304222e-03 1.9762032004468949e-03 -2.5644138842869026e-03  -1.2754519339952873e-03 4.1196834457882595e-03 -7.1089500877907956e-03  -4.2989506489704500e-04 5.1193553122299397e-03 -8.5340611939178895e-03  -1.4838413214089268e-04 5.4257037640108629e-03 -8.8564260245802013e-03  -1.0774053196137296e-04 5.5492437284080020e-03 -9.1479640598639955e-03  -9.4888009548213298e-05 5.6181909620096728e-03 -9.3999444292622650e-03  -1.0022790838123277e-04 5.6779073031764798e-03 -9.6744652102530200e-03  -1.0611999219876380e-04 5.7382037786921757e-03 -9.9679560431355785e-03  -1.1193611950947765e-04 5.8012295579315341e-03 -1.0280069635694413e-02  -1.1673957976953766e-04 5.8671014674715125e-03 -1.0607489936189313e-02  -1.2063154877384749e-04 5.9355423196599359e-03 -1.0946991030921198e-02  -1.2369580534592425e-04 6.0060276890745081e-03 -1.1296714657078067e-02  -1.2716061525668197e-04 6.0799629878198124e-03 -1.1649287265473086e-02  -1.3338517605581080e-04 6.1620350077417445e-03 -1.2018959323959532e-02  -1.7073405753194960e-04 6.2678402976766743e-03 -1.2347619202363068e-02  -3.5207392654968447e-04 6.5959427529173227e-03 -1.2866048346808354e-02  -1.5537277862168891e-04 7.0105639316576911e-03 -1.4579237802595882e-02  1.4194704891710335e-03 8.0885258193241476e-03 -1.4365777203287220e-02  0.0000000000000000e+00 0.0000000000000000e+00 0.0000000000000000e+00  -1.5533730612604760e-05 1.4945638920442386e-06 -2.3271737389581549e-05  -2.9461871440715726e-05 4.9116406617909387e-06 -8.7009754253760936e-05  -4.1834777594135281e-05 1.0240152548389008e-05 -1.8792221538669406e-04  -5.2694922257298851e-05 1.7293873287691742e-05 -3.2162260357515587e-04  -6.2136872915002423e-05 2.5916784601252926e-05 -4.8398248199788647e-04  -7.0257514976798850e-05 3.5950854350094766e-05 -6.7114053564281241e-04  -7.7154050673809712e-05 4.7238422053490122e-05 -8.7950485142643405e-04  -8.2924137780792317e-05 5.9623265641820398e-05 -1.1057544570026187e-03  -8.7666027912629711e-05 7.2952190258413315e-05 -1.3468414639146130e-03  -9.1478607039453718e-05 8.7076730730558058e-05 -1.5999934036209150e-03  -9.4461411796916827e-05 1.0185499188104697e-04 -1.8627156791310687e-03  -9.6714633150398439e-05 1.1715360323766445e-04 -2.1327940817327429e-03  -9.8339117276199353e-05 1.3284977518006758e-04 -2.4082973394039088e-03  -9.9436332584433478e-05 1.4883344938432282e-04 -2.6875797069872915e-03  -1.0010838795188501e-04 1.6500939156219893e-04 -2.9692832997961671e-03  -1.0045760174006399e-04 1.8129997422912503e-04 -3.2523410637908625e-03  -1.0058681923496581e-04 1.9764662866651785e-04 -3.5359758059293179e-03  -1.0060847081334767e-04 2.1401197976760804e-04 -3.8197057883842160e-03  0.0000000000000000e+00 0.0000000000000000e+00 0.0000000000000000e+00  -1.4764368191578178e-05 2.3314763122812667e-06 -2.3027427526524519e-05  -2.9347835374041689e-05 5.6614657759304013e-06 -8.6651472801928733e-05  -4.2336852921524020e-05 1.0902893975042234e-05 -1.8751258503594902e-04  -5.3760277754815194e-05 1.7871563607881755e-05 -3.2116720384630406e-04  -6.3715403249412712e-05 2.6414932520950644e-05 -4.8348625542231897e-04  -7.2299257319384855e-05 3.6375099427205831e-05 -6.7060792674198874e-04  -7.9609247876197449e-05 4.7594437678530197e-05 -8.7894009761773251e-04  -8.5743572476269483e-05 5.9916766047180097e-05 -1.1051615852427283e-03  -9.0801437137648074e-05 7.3188939549307107e-05 -1.3462242679509861e-03  -9.4883137161852412e-05 8.7262546621539976e-05 -1.5993554191113812e-03  -9.8090106756880237e-05 1.0199574712852536e-04 -1.8620601575208358e-03  -1.0052495002289140e-04 1.1725522638500696e-04 -2.1321239619416037e-03  -1.0229146924773312e-04 1.3291824763318606e-04 -2.4076152178366195e-03  -1.0349463546413309e-04 1.4887480422122373e-04 -2.6868878058186147e-03  -1.0424068239201130e-04 1.6502968872841978e-04 -2.9685833936960886e-03  -1.0463672239650093e-04 1.8130516406592568e-04 -3.2516344709531829e-03  -1.0479036259873633e-04 1.9764297590831907e-04 -3.5352630547742848e-03  -1.0481848085474487e-04 2.1400531007602838e-04 -3.8189867245914263e-03  0.0000000000000000e+00 0.0000000000000000e+00 0.0000000000000000e+00  -1.4449018262623586e-03 -2.0202432634130619e-03 -3.8014844863258133e-03  -1.1130858288434773e-03 -4.4307853632725245e-03 -8.4165684961678717e-03  -3.6508181864469740e-04 -5.6838235323445375e-03 -9.3544766988487103e-03  -1.5425112706019323e-04 -6.0354342976051004e-03 -9.7195546761604367e-03  -1.0700903941980709e-04 -6.1503302435196201e-03 -9.9838020424144452e-03  -1.0412946185091151e-04 -6.1994538643233800e-03 -1.0239485147163899e-02  -1.1111395579802127e-04 -6.2324812989587221e-03 -1.0521175350290334e-02  -1.1881208720788950e-04 -6.2635613792045809e-03 -1.0824655910993823e-02  -1.2557094278388487e-04 -6.2953030359731675e-03 -1.1147948299782896e-02  -1.3105583253212290e-04 -6.3283440396537660e-03 -1.1487367737014857e-02  -1.3560385297913460e-04 -6.3626360304911882e-03 -1.1839606964496383e-02  -1.3866818153981342e-04 -6.3984736904992012e-03 -1.2202642638904661e-02  -1.4342952126010025e-04 -6.4374553434176319e-03 -1.2570545677749921e-02  -1.4791598859898819e-04 -6.4858777277200953e-03 -1.2963325140477298e-02  -1.9332055308052254e-04 -6.5583212974471006e-03 -1.3323173314350191e-02  -3.3508146428329680e-04 -6.8396261179238561e-03 -1.3989363476228039e-02  2.3173868633485379e-06 -7.5802176180901583e-03 -1.5202583759897807e-02  9.4682719411007526e-04 -8.6910461394918547e-03 -1.4264176526404772e-02  0.0000000000000000e+00 0.0000000000000000e+00 0.0000000000000000e+00  -2.2931184569662203e-03 -2.5748326410104626e-03 -6.9217008072279531e-03  -1.8614941905776121e-03 -5.9609672745561627e-03 -1.5682741160509189e-02  -5.6177892600532936e-04 -7.9151770551447054e-03 -1.8041233355253199e-02  -2.1407668778203182e-04 -8.5232337221749516e-03 -1.8747706299226879e-02  -1.4142127411386076e-04 -8.7193617516896135e-03 -1.9186939398846196e-02  -1.3115940781035119e-04 -8.8002244696136593e-03 -1.9533748339575448e-02  -1.3977816814969468e-04 -8.8484399331741469e-03 -1.9903156816875746e-02  -1.4919720049716379e-04 -8.8910390050867330e-03 -2.0295176702456705e-02  -1.5782147520941101e-04 -8.9335872302861059e-03 -2.0712127213217624e-02  -1.6485986588875867e-04 -8.9776049803871206e-03 -2.1149844456610150e-02  -1.7064937769528199e-04 -9.0231522668527860e-03 -2.1604252224136585e-02  -1.7489409915976445e-04 -9.0709677568008660e-03 -2.2074057716063984e-02  -1.8082742699861048e-04 -9.1230354586378740e-03 -2.2550732904793380e-02  -1.8966559062593468e-04 -9.1901864408609844e-03 -2.3075549512997638e-02  -2.4401855922149846e-04 -9.2861425769893823e-03 -2.3563852614150626e-02  -4.7311151462773123e-04 -9.6595037915094533e-03 -2.4603711688784561e-02  3.2267132651520866e-05 -1.0836621515880086e-02 -2.7084299468913595e-02  9.6331732195414032e-04 -1.2762355370628208e-02 -2.5648196575935554e-02  0.0000000000000000e+00 0.0000000000000000e+00 0.0000000000000000e+00  -2.3273885593905353e-03 -2.5246213501659573e-03 -9.3969558401634165e-03  -2.1109349001238037e-03 -6.2075346938291753e-03 -2.1209558817633697e-02  -5.9750281025757834e-04 -8.4128474088263280e-03 -2.5246824361413202e-02  -2.0534934130921111e-04 -9.1548319863735943e-03 -2.6451204494592890e-02  -1.5044937602607086e-04 -9.3980865074034178e-03 -2.7094787743995541e-02  -1.3803970481077456e-04 -9.4936550973784856e-03 -2.7526738229365355e-02  -1.4966750948312946e-04 -9.5455816436164232e-03 -2.7958397054617074e-02  -1.5992983429273823e-04 -9.5881542559881090e-03 -2.8406639096091583e-02  -1.6952019930242988e-04 -9.6295012140831769e-03 -2.8880852663036610e-02  -1.7727344347249436e-04 -9.6718256534352506e-03 -2.9377749327772262e-02  -1.8351044459553943e-04 -9.7154341746704502e-03 -2.9893422072612124e-02  -1.8825244788698808e-04 -9.7611913037505948e-03 -3.0426804915095175e-02  -1.9284000895475130e-04 -9.8111273762864753e-03 -3.0972064950931921e-02  -2.0205077241243602e-04 -9.8763908836215185e-03 -3.1575524831724662e-02  -2.2680799057068793e-04 -9.9741812435664504e-03 -3.2208653395599744e-02  -4.1265122782241907e-04 -1.0349970222502280e-02 -3.3498512092051042e-02  1.2911976763662828e-04 -1.1606588533061842e-02 -3.6989245197544110e-02  1.1153290326744131e-03 -1.3889617178574705e-02 -3.6339668094761211e-02  0.0000000000000000e+00 0.0000000000000000e+00 0.0000000000000000e+00  -9.5272383366213742e-04 1.3774963443277232e-03 -9.0382812523682032e-03  -8.4565922284774136e-04 2.9061683924599545e-03 -2.0977148078428487e-02  -2.7633916049672850e-04 3.5559055519863584e-03 -2.4846210552550659e-02  -1.0155229747776348e-04 3.7322456800874346e-03 -2.5989259203434732e-02  -6.4190599174376381e-05 3.8107786111820367e-03 -2.6601236933251195e-02  -5.4050539942980672e-05 3.8514473079803275e-03 -2.7030117400291268e-02  -5.6332839169728974e-05 3.8869777712940397e-03 -2.7465444219781667e-02  -5.9553554913448346e-05 3.9219541953362073e-03 -2.7919970901398090e-02  -6.2883680220824438e-05 3.9580527083895008e-03 -2.8400836403542202e-02  -6.5645077129878479e-05 3.9954405138671730e-03 -2.8904343157294999e-02  -6.8054833476944399e-05 4.0341362414170303e-03 -2.9426394341911785e-02  -6.9797322963164319e-05 4.0739359692063383e-03 -2.9966012460083166e-02  -7.1821217687425935e-05 4.1168418374877645e-03 -3.0514287075152812e-02  -7.9347195469301021e-05 4.1666375886805045e-03 -3.1128671721154504e-02  -9.9971836050584159e-05 4.2330720424848109e-03 -3.1695017291995801e-02  -1.8171736329090565e-04 4.4914349028721996e-03 -3.3264774611530698e-02  3.8267686338423756e-04 4.9293908942438791e-03 -3.6269802011997296e-02  1.1298193593247395e-03 5.5513647486473000e-03 -3.3927198622327584e-02  0.0000000000000000e+00 0.0000000000000000e+00 0.0000000000000000e+00  -9.9365138273055137e-04 1.2004214129057369e-03 -5.5671928424558250e-03  -9.5674351913156914e-04 2.5053146317935118e-03 -1.4371453644052607e-02  -3.1846374411599653e-04 3.1284554781332010e-03 -1.7098665790589614e-02  -1.0141845133701272e-04 3.3177728697498217e-03 -1.7760803436886883e-02  -6.6810329413027582e-05 3.3969502406534348e-03 -1.8215296664426468e-02  -5.4000066162522541e-05 3.4384524136949171e-03 -1.8561044977092715e-02  -5.6428652395491554e-05 3.4733633657672144e-03 -1.8929581209152464e-02  -5.9486593383382563e-05 3.5077596388046871e-03 -1.9319688509152021e-02  -6.2798992471807283e-05 3.5432263336904017e-03 -1.9734147537410054e-02  -6.5577507968065003e-05 3.5800166733788003e-03 -2.0168932921404901e-02  -6.7880515945413774e-05 3.6181385533982794e-03 -2.0619835847655157e-02  -6.9929384849234973e-05 3.6572905511602781e-03 -2.1085529206862373e-02  -7.1672831510682914e-05 3.6994435152638027e-03 -2.1553457684895437e-02  -7.8789198119510469e-05 3.7481852431081350e-03 -2.2065287268359945e-02  -9.7692669187357843e-05 3.8096907278373968e-03 -2.2491576079356940e-02  -2.1449867441836060e-04 4.0181198999947685e-03 -2.3515113991894404e-02  1.5258937398922250e-04 4.3643800908715422e-03 -2.6219292147062201e-02  1.0771597337583499e-03 5.0407316928813267e-03 -2.4979218289585721e-02  0.0000000000000000e+00 0.0000000000000000e+00 0.0000000000000000e+00  -6.3879517647640971e-04 7.2722559636245396e-04 -2.3055268651054183e-03  -6.6729981162452106e-04 1.5119848727701318e-03 -6.7354963367170393e-03  -2.3553437168672025e-04 1.9193544769263234e-03 -8.0940415627791199e-03  -6.9627658278862886e-05 2.0581347281494636e-03 -8.3406937805684065e-03  -5.2734007975409999e-05 2.1163967548761551e-03 -8.6062762305985484e-03  -4.4886298059297069e-05 2.1504064371011674e-03 -8.8507351067942212e-03  -4.7364302531815859e-05 2.1800706645239113e-03 -9.1213487935018281e-03  -5.0110392109653875e-05 2.2100464861655048e-03 -9.4125283234202245e-03  -5.2854069419533699e-05 2.2413333592454514e-03 -9.7225665312746287e-03  -5.5143373102073986e-05 2.2740209301308377e-03 -1.0048015736621601e-02  -5.6990738400189302e-05 2.3079929025760526e-03 -1.0385517408711588e-02  -5.8567180856543802e-05 2.3429821769950683e-03 -1.0733147525805724e-02  -5.9972610858820850e-05 2.3797862665602696e-03 -1.1082814230770255e-02  -6.4337791192318222e-05 2.4214594338234801e-03 -1.1447997980034964e-02  -7.6305789280610821e-05 2.4700559919013762e-03 -1.1765514029802906e-02  -1.6073604286399729e-04 2.6001940888615164e-03 -1.2248180357880251e-02  -2.5235347795168782e-05 2.7872844505416050e-03 -1.3961151906757761e-02  9.1426679516060669e-04 3.3598680070253371e-03 -1.3778964267036758e-02  0.0000000000000000e+00 0.0000000000000000e+00 0.0000000000000000e+00  -7.2924212635897751e-06 1.3983666418967648e-06 -2.2625676438561212e-05  -1.4256606920765671e-05 4.7809316088637023e-06 -8.6423211107192622e-05  -2.0386484877875766e-05 1.0056697727999375e-05 -1.8740058324673758e-04  -2.5763639197859319e-05 1.7064761882228416e-05 -3.2116494655038536e-04  -3.0438070823483599e-05 2.5646209778559989e-05 -4.8358490711625885e-04  -3.4458481688202726e-05 3.5642883337277749e-05 -6.7079895792369957e-04  -3.7873433182031920e-05 4.6896974324576145e-05 -8.7921513124170981e-04  -4.0731608802421575e-05 5.9252115809265140e-05 -1.1055124227102174e-03  -4.3081880864608824e-05 7.2554955269906048e-05 -1.3466429114101501e-03  -4.4973326101547375e-05 8.6656853233526711e-05 -1.5998340959290254e-03  -4.6455225457361949e-05 1.0141572197007604e-04 -1.8625913456398831e-03  -4.7577059223708073e-05 1.1669797881761031e-04 -2.1327004176200544e-03  -4.8388502419479133e-05 1.3238060021497839e-04 -2.4082300051175482e-03  -4.8939411272748944e-05 1.4835326715812380e-04 -2.6875343283065223e-03  -4.9279807877012873e-05 1.6452044396551567e-04 -2.9692554596174071e-03  -4.9459773674800747e-05 1.8080410726056793e-04 -3.2523262995389560e-03  -4.9529307024704508e-05 1.9714537192386624e-04 -3.5359695199886935e-03  -4.9541537169061835e-05 2.1350606526889356e-04 -3.8197011394169008e-03  0.0000000000000000e+00 0.0000000000000000e+00 0.0000000000000000e+00  -7.4916502876352099e-06 2.0095306155332879e-06 -2.2250204148772460e-05  -1.5059340993866547e-05 5.2772724754780752e-06 -8.6003444357839366e-05  -2.1691844461271980e-05 1.0491312231340753e-05 -1.8693787300676887e-04  -2.7528895541860681e-05 1.7443847730967159e-05 -3.2066208189745403e-04  -3.2620227952223926e-05 2.5973783056543019e-05 -4.8304604894753710e-04  -3.7014587798480464e-05 3.5922615857985315e-05 -6.7022829379767318e-04  -4.0760737915883565e-05 4.7132507041398568e-05 -8.7861669621280716e-04  -4.3907924961680841e-05 5.9447109999697104e-05 -1.1048900417443891e-03  -4.6506004613167804e-05 7.2713103277614793e-05 -1.3460001685802179e-03  -4.8605491992192198e-05 8.6781881409829178e-05 -1.5991743077452046e-03  -5.0257594132685314e-05 1.0151139161832366e-04 -1.8619175341487160e-03  -5.1514232164947540e-05 1.1676808665242558e-04 -2.1320152816571704e-03  -5.2428062443452054e-05 1.3242897718328356e-04 -2.4075358894995471e-03  -5.3052467943456404e-05 1.4838377903673026e-04 -2.6868331927534278e-03  -5.3441604161937369e-05 1.6453698322746772e-04 -2.9685488035025415e-03  -5.3650280734319319e-05 1.8081052981176599e-04 -3.2516151552950271e-03  -5.3733535792448286e-05 1.9714557260783476e-04 -3.5352542825131754e-03  -5.3750071831590228e-05 2.1350352992390389e-04 -3.8189828140535375e-03  0.0000000000000000e+00 0.0000000000000000e+00 0.0000000000000000e+00  -7.1521130583175466e-04 -6.5658567099397480e-04 -3.4639912018018999e-03  -6.3673493045316419e-04 -1.4956381731676570e-03 -7.7066090796013755e-03  -2.1627826609326302e-04 -1.9772067569062556e-03 -8.3423851845390289e-03  -8.0978249122222820e-05 -2.1089852154731587e-03 -8.5615437157851096e-03  -5.6065661290912755e-05 -2.1405102806322514e-03 -8.7833820278046971e-03  -5.4044237916207466e-05 -2.1487599633836889e-03 -9.0218314078880559e-03  -5.7985865045537976e-05 -2.1491078972182003e-03 -9.2936080404319877e-03  -6.2138424951286948e-05 -2.1478159911375856e-03 -9.5884140677761666e-03  -6.5737416226888429e-05 -2.1458316316665940e-03 -9.9029147990809599e-03  -6.8636387256517054e-05 -2.1435665490226936e-03 -1.0233164514278387e-02  -7.0977962342086710e-05 -2.1410927064079103e-03 -1.0575799562670190e-02  -7.2648242295578322e-05 -2.1387389584103765e-03 -1.0928905719746456e-02  -7.4035575954706134e-05 -2.1370277882610551e-03 -1.1285810065376975e-02  -7.8661751059634825e-05 -2.1378563533238624e-03 -1.1666224308775739e-02  -8.9532305515728340e-05 -2.1471269124385644e-03 -1.2007285827601698e-02  -1.4601500660804128e-04 -2.2284968570756626e-03 -1.2616952758132077e-02  -1.1508803372261245e-06 -2.5426159332684766e-03 -1.3700587152836681e-02  6.6880895385432095e-04 -3.0541058717613806e-03 -1.2330293952573833e-02  0.0000000000000000e+00 0.0000000000000000e+00 0.0000000000000000e+00  -1.0599899776255065e-03 -1.0310825289685385e-03 -6.6887882785025337e-03  -9.7646513417450553e-04 -2.5545210048462334e-03 -1.5382506374653489e-02  -2.9973862151369801e-04 -3.4983035968833526e-03 -1.7615853871836892e-02  -9.9733677256143503e-05 -3.7926218423739279e-03 -1.8201805770764926e-02  -7.1692596572413598e-05 -3.8749743814152980e-03 -1.8606365365506649e-02  -6.7398956911495200e-05 -3.9028052859103038e-03 -1.8940937339509235e-02  -7.3299060772685784e-05 -3.9134427276063827e-03 -1.9305668737218479e-02  -7.8629803080116874e-05 -3.9205037455857499e-03 -1.9695052697523873e-02  -8.3355799778140921e-05 -3.9267409217937366e-03 -2.01098026