<?xml version="1.0"?>
<VTKFile type="UnstructuredGrid"  version="0.1"  >
<UnstructuredGrid>
<Piece  NumberOfPoints="760" NumberOfCells="3024">
<Points>
<DataArray  type="Float64"  NumberOfComponents="3"  format="ascii">0 0 0  0.05555555555555555 0 0  0.1111111111111111 0 0  0.1666666666666667 0 0  0.2222222222222222 0 0  0.2777777777777778 0 0  0.3333333333333333 0 0  0.3888888888888889 0 0  0.4444444444444444 0 0  0.5 0 0  0.5555555555555556 0 0  0.6111111111111112 0 0  0.6666666666666666 0 0  0.7222222222222222 0 0  0.7777777777777778 0 0  0.8333333333333334 0 0  0.8888888888888888 0 0  0.9444444444444444 0 0  1 0 0  0 0.01428571428571429 0  0.05555555555555555 0.01428571428571429 0  0.1111111111111111 0.01428571428571429 0  0.1666666666666667 0.01428571428571429 0  0.2222222222222222 0.01428571428571429 0  0.2777777777777778 0.01428571428571429 0  0.3333333333333333 0.01428571428571429 0  0.3888888888888889 0.01428571428571429 0  0.4444444444444444 0.01428571428571429 0  0.5 0.01428571428571429 0  0.5555555555555556 0.01428571428571429 0  0.6111111111111112 0.01428571428571429 0  0.6666666666666666 0.01428571428571429 0  0.7222222222222222 0.01428571428571429 0  0.7777777777777778 0.01428571428571429 0  0.8333333333333334 0.01428571428571429 0  0.8888888888888888 0.01428571428571429 0  0.9444444444444444 0.01428571428571429 0  1 0.01428571428571429 0  0 0.02857142857142857 0  0.05555555555555555 0.02857142857142857 0  0.1111111111111111 0.02857142857142857 0  0.1666666666666667 0.02857142857142857 0  0.2222222222222222 0.02857142857142857 0  0.2777777777777778 0.02857142857142857 0  0.3333333333333333 0.02857142857142857 0  0.3888888888888889 0.02857142857142857 0  0.4444444444444444 0.02857142857142857 0  0.5 0.02857142857142857 0  0.5555555555555556 0.02857142857142857 0  0.6111111111111112 0.02857142857142857 0  0.6666666666666666 0.02857142857142857 0  0.7222222222222222 0.02857142857142857 0  0.7777777777777778 0.02857142857142857 0  0.8333333333333334 0.02857142857142857 0  0.8888888888888888 0.02857142857142857 0  0.9444444444444444 0.02857142857142857 0  1 0.02857142857142857 0  0 0.04285714285714286 0  0.05555555555555555 0.04285714285714286 0  0.1111111111111111 0.04285714285714286 0  0.1666666666666667 0.04285714285714286 0  0.2222222222222222 0.04285714285714286 0  0.2777777777777778 0.04285714285714286 0  0.3333333333333333 0.04285714285714286 0  0.3888888888888889 0.04285714285714286 0  0.4444444444444444 0.04285714285714286 0  0.5 0.04285714285714286 0  0.5555555555555556 0.04285714285714286 0  0.6111111111111112 0.04285714285714286 0  0.6666666666666666 0.04285714285714286 0  0.7222222222222222 0.04285714285714286 0  0.7777777777777778 0.04285714285714286 0  0.8333333333333334 0.04285714285714286 0  0.8888888888888888 0.04285714285714286 0  0.9444444444444444 0.04285714285714286 0  1 0.04285714285714286 0  0 0.05714285714285715 0  0.05555555555555555 0.05714285714285715 0  0.1111111111111111 0.05714285714285715 0  0.1666666666666667 0.05714285714285715 0  0.2222222222222222 0.05714285714285715 0  0.2777777777777778 0.05714285714285715 0  0.3333333333333333 0.05714285714285715 0  0.3888888888888889 0.05714285714285715 0  0.4444444444444444 0.05714285714285715 0  0.5 0.05714285714285715 0  0.5555555555555556 0.05714285714285715 0  0.6111111111111112 0.05714285714285715 0  0.6666666666666666 0.05714285714285715 0  0.7222222222222222 0.05714285714285715 0  0.7777777777777778 0.05714285714285715 0  0.8333333333333334 0.05714285714285715 0  0.8888888888888888 0.05714285714285715 0  0.9444444444444444 0.05714285714285715 0  1 0.05714285714285715 0  0 0.07142857142857142 0  0.05555555555555555 0.07142857142857142 0  0.1111111111111111 0.07142857142857142 0  0.1666666666666667 0.07142857142857142 0  0.2222222222222222 0.07142857142857142 0  0.2777777777777778 0.07142857142857142 0  0.3333333333333333 0.07142857142857142 0  0.3888888888888889 0.07142857142857142 0  0.4444444444444444 0.07142857142857142 0  0.5 0.07142857142857142 0  0.5555555555555556 0.07142857142857142 0  0.6111111111111112 0.07142857142857142 0  0.6666666666666666 0.07142857142857142 0  0.7222222222222222 0.07142857142857142 0  0.7777777777777778 0.07142857142857142 0  0.8333333333333334 0.07142857142857142 0  0.8888888888888888 0.07142857142857142 0  0.9444444444444444 0.07142857142857142 0  1 0.07142857142857142 0  0 0.08571428571428573 0  0.05555555555555555 0.08571428571428573 0  0.1111111111111111 0.08571428571428573 0  0.1666666666666667 0.08571428571428573 0  0.2222222222222222 0.08571428571428573 0  0.2777777777777778 0.08571428571428573 0  0.3333333333333333 0.08571428571428573 0  0.3888888888888889 0.08571428571428573 0  0.4444444444444444 0.08571428571428573 0  0.5 0.08571428571428573 0  0.5555555555555556 0.08571428571428573 0  0.6111111111111112 0.08571428571428573 0  0.6666666666666666 0.08571428571428573 0  0.7222222222222222 0.08571428571428573 0  0.7777777777777778 0.08571428571428573 0  0.8333333333333334 0.08571428571428573 0  0.8888888888888888 0.08571428571428573 0  0.9444444444444444 0.08571428571428573 0  1 0.08571428571428573 0  0 0.1 0  0.05555555555555555 0.1 0  0.1111111111111111 0.1 0  0.1666666666666667 0.1 0  0.2222222222222222 0.1 0  0.2777777777777778 0.1 0  0.3333333333333333 0.1 0  0.3888888888888889 0.1 0  0.4444444444444444 0.1 0  0.5 0.1 0  0.5555555555555556 0.1 0  0.6111111111111112 0.1 0  0.6666666666666666 0.1 0  0.7222222222222222 0.1 0  0.7777777777777778 0.1 0  0.8333333333333334 0.1 0  0.8888888888888888 0.1 0  0.9444444444444444 0.1 0  1 0.1 0  0 0 0.01  0.05555555555555555 0 0.01  0.1111111111111111 0 0.01  0.1666666666666667 0 0.01  0.2222222222222222 0 0.01  0.2777777777777778 0 0.01  0.3333333333333333 0 0.01  0.3888888888888889 0 0.01  0.4444444444444444 0 0.01  0.5 0 0.01  0.5555555555555556 0 0.01  0.6111111111111112 0 0.01  0.6666666666666666 0 0.01  0.7222222222222222 0 0.01  0.7777777777777778 0 0.01  0.8333333333333334 0 0.01  0.8888888888888888 0 0.01  0.9444444444444444 0 0.01  1 0 0.01  0 0.01428571428571429 0.01  0.05555555555555555 0.01428571428571429 0.01  0.1111111111111111 0.01428571428571429 0.01  0.1666666666666667 0.01428571428571429 0.01  0.2222222222222222 0.01428571428571429 0.01  0.2777777777777778 0.01428571428571429 0.01  0.3333333333333333 0.01428571428571429 0.01  0.3888888888888889 0.01428571428571429 0.01  0.4444444444444444 0.01428571428571429 0.01  0.5 0.01428571428571429 0.01  0.5555555555555556 0.01428571428571429 0.01  0.6111111111111112 0.01428571428571429 0.01  0.6666666666666666 0.01428571428571429 0.01  0.7222222222222222 0.01428571428571429 0.01  0.7777777777777778 0.01428571428571429 0.01  0.8333333333333334 0.01428571428571429 0.01  0.8888888888888888 0.01428571428571429 0.01  0.9444444444444444 0.01428571428571429 0.01  1 0.01428571428571429 0.01  0 0.02857142857142857 0.01  0.05555555555555555 0.02857142857142857 0.01  0.1111111111111111 0.02857142857142857 0.01  0.1666666666666667 0.02857142857142857 0.01  0.2222222222222222 0.02857142857142857 0.01  0.2777777777777778 0.02857142857142857 0.01  0.3333333333333333 0.02857142857142857 0.01  0.3888888888888889 0.02857142857142857 0.01  0.4444444444444444 0.02857142857142857 0.01  0.5 0.02857142857142857 0.01  0.5555555555555556 0.02857142857142857 0.01  0.6111111111111112 0.02857142857142857 0.01  0.6666666666666666 0.02857142857142857 0.01  0.7222222222222222 0.02857142857142857 0.01  0.7777777777777778 0.02857142857142857 0.01  0.8333333333333334 0.02857142857142857 0.01  0.8888888888888888 0.02857142857142857 0.01  0.9444444444444444 0.02857142857142857 0.01  1 0.02857142857142857 0.01  0 0.04285714285714286 0.01  0.05555555555555555 0.04285714285714286 0.01  0.1111111111111111 0.04285714285714286 0.01  0.1666666666666667 0.04285714285714286 0.01  0.2222222222222222 0.04285714285714286 0.01  0.2777777777777778 0.04285714285714286 0.01  0.3333333333333333 0.04285714285714286 0.01  0.3888888888888889 0.04285714285714286 0.01  0.4444444444444444 0.04285714285714286 0.01  0.5 0.04285714285714286 0.01  0.5555555555555556 0.04285714285714286 0.01  0.6111111111111112 0.04285714285714286 0.01  0.6666666666666666 0.04285714285714286 0.01  0.7222222222222222 0.04285714285714286 0.01  0.7777777777777778 0.04285714285714286 0.01  0.8333333333333334 0.04285714285714286 0.01  0.8888888888888888 0.04285714285714286 0.01  0.9444444444444444 0.04285714285714286 0.01  1 0.04285714285714286 0.01  0 0.05714285714285715 0.01  0.05555555555555555 0.05714285714285715 0.01  0.1111111111111111 0.05714285714285715 0.01  0.1666666666666667 0.05714285714285715 0.01  0.2222222222222222 0.05714285714285715 0.01  0.2777777777777778 0.05714285714285715 0.01  0.3333333333333333 0.05714285714285715 0.01  0.3888888888888889 0.05714285714285715 0.01  0.4444444444444444 0.05714285714285715 0.01  0.5 0.05714285714285715 0.01  0.5555555555555556 0.05714285714285715 0.01  0.6111111111111112 0.05714285714285715 0.01  0.6666666666666666 0.05714285714285715 0.01  0.7222222222222222 0.05714285714285715 0.01  0.7777777777777778 0.05714285714285715 0.01  0.8333333333333334 0.05714285714285715 0.01  0.8888888888888888 0.05714285714285715 0.01  0.9444444444444444 0.05714285714285715 0.01  1 0.05714285714285715 0.01  0 0.07142857142857142 0.01  0.05555555555555555 0.07142857142857142 0.01  0.1111111111111111 0.07142857142857142 0.01  0.1666666666666667 0.07142857142857142 0.01  0.2222222222222222 0.07142857142857142 0.01  0.2777777777777778 0.07142857142857142 0.01  0.3333333333333333 0.07142857142857142 0.01  0.3888888888888889 0.07142857142857142 0.01  0.4444444444444444 0.07142857142857142 0.01  0.5 0.07142857142857142 0.01  0.5555555555555556 0.07142857142857142 0.01  0.6111111111111112 0.07142857142857142 0.01  0.6666666666666666 0.07142857142857142 0.01  0.7222222222222222 0.07142857142857142 0.01  0.7777777777777778 0.07142857142857142 0.01  0.8333333333333334 0.07142857142857142 0.01  0.8888888888888888 0.07142857142857142 0.01  
[...]
<PointData  Vectors="f_36"> 
<DataArray  type="Float64"  Name="f_36"  NumberOfComponents="3" format="ascii">0.0000000000000000e+00 0.0000000000000000e+00 0.0000000000000000e+00  2.5302683069867242e-03 -6.3328032601715021e-03 1.8714008514193949e-02  5.3123511713773052e-04 -8.7562319805792460e-03 2.7855344608673949e-02  -5.9372982882256655e-04 -8.2541969061710480e-03 2.4758969491671976e-02  -2.6643469117526325e-04 -7.7625427030183370e-03 2.2821258711305064e-02  -4.8656212969086095e-05 -7.6759221829806601e-03 2.2825002388982028e-02  -4.8540745789294740e-05 -7.5613405266024506e-03 2.2491684933645339e-02  -4.1696077460819960e-05 -7.4383844609115946e-03 2.2248680153182154e-02  -4.2128986380362860e-05 -7.3215806912794168e-03 2.2005034632662443e-02  -4.4942906907994562e-05 -7.1974914344897561e-03 2.1742437262786369e-02  -4.5259615831420880e-05 -7.0685736767932125e-03 2.1468214749447757e-02  -4.6351795544297760e-05 -6.9341718885921671e-03 2.1191366532628014e-02  -6.2828023155844242e-05 -6.7870481432350162e-03 2.0883378576354174e-02  -2.6143517175713042e-05 -6.6618081079228720e-03 2.0574966811765360e-02  -9.2716338459172674e-05 -6.5007490611784470e-03 2.0470167321635587e-02  -6.8376002896199974e-05 -6.2012557995879359e-03 1.9195186403602699e-02  6.2603835843353186e-04 -6.4678614237782149e-03 1.8940005391745857e-02  6.9183541259039893e-04 -7.5116754991830115e-03 2.3330644976071152e-02  1.5006215668482428e-04 -8.2224622767412218e-03 2.4928784780806356e-02  0.0000000000000000e+00 0.0000000000000000e+00 0.0000000000000000e+00  2.6579596974679138e-03 -5.5937528305682318e-03 1.2781218643453343e-02  7.7765424531266441e-04 -8.0761261380354679e-03 1.9698224326624915e-02  -5.8235104242513095e-04 -7.7317416879499248e-03 1.7154589489460331e-02  -2.8591499040586009e-04 -7.2387961080477865e-03 1.5607858585034239e-02  -2.6756522365555511e-05 -7.1362650209338381e-03 1.5723827580918580e-02  -3.7669437277643085e-05 -7.0260150138687586e-03 1.5539620154344522e-02  -3.0345995763067279e-05 -6.9071154059508980e-03 1.5423147500786038e-02  -2.8901771838270885e-05 -6.7944345357373480e-03 1.5315888399374826e-02  -3.1179313468071224e-05 -6.6747306927103294e-03 1.5194998496211557e-02  -3.1795902134889716e-05 -6.5501857370433457e-03 1.5069239364896136e-02  -3.2000009621451000e-05 -6.4203930619953619e-03 1.4943896039535652e-02  -4.4064434075450569e-05 -6.2792931702160808e-03 1.4803294011848258e-02  -1.8861142708646862e-05 -6.1570952796740257e-03 1.4649651991971132e-02  -6.1714278888475301e-05 -6.0059495402735377e-03 1.4697677165346671e-02  -7.6493430032421498e-05 -5.7052230574822808e-03 1.3760382910467597e-02  5.2474143726433521e-04 -5.8808413449862795e-03 1.3330072790879903e-02  8.0452166030040473e-04 -6.8702921556063196e-03 1.6799091340987005e-02  7.1284295370436189e-05 -7.8061314667879156e-03 1.8546437589484831e-02  0.0000000000000000e+00 0.0000000000000000e+00 0.0000000000000000e+00  1.6802086993462295e-03 -3.6847720588997551e-03 5.9464431977279747e-03  5.7850589126722896e-04 -5.5146691066962020e-03 9.5834077499902370e-03  -3.5343103203194082e-04 -5.2861431222239958e-03 8.2306100045054596e-03  -1.7569331976944293e-04 -4.8925852548546483e-03 7.4241979079993541e-03  9.9486917582329121e-06 -4.8128967651099161e-03 7.5847856235530479e-03  1.5710123428019953e-06 -4.7391972790818120e-03 7.5783864686991883e-03  7.5581955011840082e-06 -4.6588928327218702e-03 7.6133397515200435e-03  1.1179181841216431e-05 -4.5827670031285085e-03 7.6638790852525465e-03  1.1219455106268107e-05 -4.5015145350617170e-03 7.7114853760342278e-03  1.1901123915368872e-05 -4.4167331508231100e-03 7.7624004402062187e-03  1.2571154063729495e-05 -4.3287549529700889e-03 7.8167178671962063e-03  8.1744981871480340e-06 -4.2332997109154049e-03 7.8701215209070474e-03  1.9442369272263281e-05 -4.1500704109124062e-03 7.9128878425467342e-03  -1.2041944201883068e-06 -4.0513371360249824e-03 8.0878686035137180e-03  -1.8441259821836248e-05 -3.8142873061295041e-03 7.7129238037965901e-03  3.3194720728279057e-04 -3.8684729096072610e-03 7.4575719563570097e-03  6.1607042213613597e-04 -4.5694668663014137e-03 9.3708585914548705e-03  -2.9942250211237754e-04 -5.6680849613489678e-03 1.0698831704372391e-02  0.0000000000000000e+00 0.0000000000000000e+00 0.0000000000000000e+00  1.1452556115505667e-05 -7.8987928469181636e-07 1.7166843661701309e-05  2.1620759620017549e-05 -2.3797160630169565e-06 6.3748622754752511e-05  3.0596366842296682e-05 -4.7733164952036156e-06 1.3712501802501918e-04  3.8441821525624763e-05 -7.8539218381703571e-06 2.3401817857050908e-04  4.5235829194820950e-05 -1.1536338395235196e-05 3.5137656749256377e-04  5.1055310222195966e-05 -1.5738275168559322e-05 4.8635447384104392e-04  5.5978227281150367e-05 -2.0383051721994635e-05 6.3632673351831487e-04  6.0081922229756140e-05 -2.5400499971116470e-05 7.9888572073992569e-04  6.3443236974979701e-05 -3.0726338476305459e-05 9.7184005421561818e-04  6.6138481276864725e-05 -3.6302424096951980e-05 1.1532133695369984e-03  6.8243357602221696e-05 -4.2076807729019007e-05 1.3412426583248708e-03  6.9832961941941255e-05 -4.8003789011808316e-05 1.5343765771201440e-03  7.0981775283820002e-05 -5.4043999832109816e-05 1.7312738493876225e-03  7.1763474706022196e-05 -6.0164019683597805e-05 1.9308011845316107e-03  7.2252271361767541e-05 -6.6336954267889910e-05 2.1320308540750646e-03  7.2519467707291707e-05 -7.2543139655079073e-05 2.3342485484825577e-03  7.2627935787883348e-05 -7.8767583437618666e-05 2.5369293228169440e-03  7.2649448791047960e-05 -8.5000370235173214e-05 2.7397081075911309e-03  0.0000000000000000e+00 0.0000000000000000e+00 0.0000000000000000e+00  1.0727508838608136e-05 -1.3960168607872867e-06 1.6987138645142461e-05  2.1228270600346097e-05 -2.9178635392242325e-06 6.3489307773495154e-05  3.0507023615122930e-05 -5.2470972010019325e-06 1.3683329929132563e-04  3.8622108872109852e-05 -8.2654691887959301e-06 2.3369920145904199e-04  4.5656825079596494e-05 -1.1889660008839466e-05 3.5103405500141435e-04  5.1689041483384516e-05 -1.6037852640303629e-05 4.8599131501288830e-04  5.6798371297870048e-05 -2.0633404588801986e-05 6.3594557534557149e-04  6.1063786809175601e-05 -2.5606123145231508e-05 7.9848894218351098e-04  6.4563731319740007e-05 -3.0891705600699139e-05 9.7142980635580450e-04  6.7376158323732176e-05 -3.6431974279029344e-05 1.1527915723345264e-03  6.9578429773238851e-05 -4.2174944202145730e-05 1.3408110035394783e-03  7.1247314004760064e-05 -4.8074878524990054e-05 1.5339365228712791e-03  7.2458950406324458e-05 -5.4092366973793892e-05 1.7308266317739795e-03  7.3288681503742349e-05 -6.0194000779322841e-05 1.9303478146290567e-03  7.3812261622373455e-05 -6.6352911122904206e-05 2.1315721734818899e-03  7.4103410140822378e-05 -7.2548739932177619e-05 2.3337853473575122e-03  7.4227049035559311e-05 -7.8766117433444938e-05 2.5364620358764830e-03  7.4253837692766467e-05 -8.4996183133192676e-05 2.7392362789117977e-03  0.0000000000000000e+00 0.0000000000000000e+00 0.0000000000000000e+00  1.6345251894252352e-03 3.8731895860021856e-03 7.4042475445193481e-03  3.6162668865695279e-04 5.9664672647400064e-03 1.0536829773667940e-02  -2.9925226001213705e-04 5.8825422303112754e-03 8.8550785834003807e-03  -1.2067934400666406e-04 5.4834103920129952e-03 8.2149546206342055e-03  -7.4757790207047985e-07 5.3435840603883586e-03 8.3657736603096160e-03  -1.4385540941473062e-06 5.2342053647913122e-03 8.3366508594898310e-03  4.6116098933992738e-06 5.1384366040916341e-03 8.3656765114636343e-03  5.4392535022005798e-06 5.0402200183064603e-03 8.3912384494253655e-03  5.2571932708871990e-06 4.9354663224795651e-03 8.4175716307270578e-03  5.9321066400188032e-06 4.8254234092942059e-03 8.4449058396398307e-03  5.9516283394213069e-06 4.7118848636660913e-03 8.4759835804045953e-03  -3.2269602906326642e-07 4.5957889299064920e-03 8.4981021978205520e-03  2.0100940738057319e-05 4.4668128337786266e-03 8.5271642032173408e-03  -2.0080267428146296e-05 4.3225043242237490e-03 8.6688054320664988e-03  -6.6374189574741889e-05 4.0818337118676369e-03 8.2495773542192018e-03  2.8763417166323088e-04 4.0328542848650081e-03 7.8946967631577433e-03  4.4405455646380471e-04 4.7174693359044980e-03 9.5793026725241003e-03  -1.3370928527359520e-04 5.7408963549320808e-03 1.0387264302120383e-02  0.0000000000000000e+00 0.0000000000000000e+00 0.0000000000000000e+00  2.6846088254448230e-03 4.9468582722718875e-03 1.3953159868794579e-02  6.6164330408371096e-04 8.0589249921514464e-03 2.0443983564118414e-02  -5.6679418008842445e-04 8.1934758760631426e-03 1.7628083018465638e-02  -2.4065538809267480e-04 7.7068268892067559e-03 1.6273109867289463e-02  -1.8344890277006432e-05 7.4992203561892162e-03 1.6402012744585661e-02  -3.9085433008472959e-05 7.3412202151321541e-03 1.6199736373610486e-02  -3.4941539209768242e-05 7.2072971915241972e-03 1.6083792937843799e-02  -3.5488231999032401e-05 7.0734446940032064e-03 1.5961541804674750e-02  -3.8716333326082366e-05 6.9312527238383275e-03 1.5826970869822831e-02  -4.0115443724102571e-05 6.7818381579605692e-03 1.5686148792405558e-02  -4.1293533742925284e-05 6.6276014742333413e-03 1.5543364906676070e-02  -5.1684318268460884e-05 6.4714681000875825e-03 1.5386697500122721e-02  -2.4384772747199873e-05 6.2901221425254754e-03 1.5211704516379177e-02  -7.4062813381038585e-05 6.0860633871394846e-03 1.5208462091581477e-02  -1.7105069853376822e-04 5.7889805690110388e-03 1.4339137352439153e-02  3.3510861875914963e-04 5.7580398353388471e-03 1.3620335084388252e-02  6.7666589677630807e-04 6.7131809659640666e-03 1.6516497285780571e-02  2.4462926470766871e-04 8.2240791723817829e-03 1.7944326704973177e-02  0.0000000000000000e+00 0.0000000000000000e+00 0.0000000000000000e+00  2.9982977031740967e-03 4.8784300558210236e-03 1.8393759646571813e-02  9.2620470863534466e-04 8.3814746935551333e-03 2.7786726989681043e-02  -6.9817220294482744e-04 8.6890302946137608e-03 2.4887828686392284e-02  -3.0982216777842230e-04 8.2266087283592235e-03 2.3027823039847777e-02  2.9806172323417466e-06 8.0073458427453361e-03 2.3063391959797921e-02  -4.1137040302693734e-05 7.8368617951577423e-03 2.2731988284466074e-02  -4.0367860351533148e-05 7.6931470307901179e-03 2.2493593044933688e-02  -3.9784971067144038e-05 7.5523084625821069e-03 2.2259408857202005e-02  -4.3871635959329185e-05 7.4035631632484349e-03 2.2002814343388400e-02  -4.5807197101343510e-05 7.2473443330627000e-03 2.1735228731736632e-02  -4.7131321213969296e-05 7.0857394634299877e-03 2.1459427311740175e-02  -5.6233055463047209e-05 6.9227448217540422e-03 2.1170220157132946e-02  -3.2008348531359686e-05 6.7317136315034982e-03 2.0836156448406227e-02  -5.8090608137219281e-05 6.5210249313460110e-03 2.0671147415434608e-02  -2.0677301080737669e-04 6.2133661459860936e-03 1.9567913215060493e-02  2.0197810092989301e-04 6.1669803200569790e-03 1.8741784809245238e-02  6.4602533862755866e-04 7.1600353032913195e-03 2.2431481416634022e-02  3.2123007774600396e-04 8.8694320348257361e-03 2.4752705932778545e-02  0.0000000000000000e+00 0.0000000000000000e+00 0.0000000000000000e+00  9.8266172836595123e-04 -2.5409098687983532e-03 1.8273096636358552e-02  2.6872498908873341e-04 -3.7517810127883724e-03 2.7638191111194001e-02  -2.8768078419604708e-04 -3.5337239681067353e-03 2.4575856406340756e-02  -1.5875807532613891e-04 -3.2821217806390337e-03 2.2584460441839621e-02  -2.2281775544908539e-05 -3.2668984225660384e-03 2.2594914025369776e-02  -1.7463067203796275e-05 -3.2379500964586205e-03 2.2275229348585029e-02  -1.6666117113529533e-05 -3.1919147883956206e-03 2.2035181974229195e-02  -1.5785753059775649e-05 -3.1547148082935483e-03 2.1796510939910960e-02  -1.7063895930914478e-05 -3.1146505630845673e-03 2.1538766716489827e-02  -1.7034736016791534e-05 -3.0728896204685417e-03 2.1269430422667157e-02  -1.6073527978458551e-05 -3.0292220501427591e-03 2.0998159251348805e-02  -2.8459443036742607e-05 -2.9794395759046499e-03 2.0695699291042507e-02  -9.9103103605766737e-06 -2.9441946040765243e-03 2.0389243923454706e-02  -4.3278629918749848e-06 -2.8912924768080025e-03 2.0299006287816532e-02  8.4052672667232046e-06 -2.7420077077052328e-03 1.9025160609342222e-02  2.7726974228458261e-04 -2.8384548817676778e-03 1.8705542697780398e-02  2.8352924935295417e-04 -3.4067379800393591e-03 2.3078306106065243e-02  -8.0879997995115025e-05 -3.9992239258331962e-03 2.4708142050022201e-02  0.0000000000000000e+00 0.0000000000000000e+00 0.0000000000000000e+00  1.1486749847094881e-03 -2.2395709194020781e-03 1.2475622816317835e-02  3.9693664626014763e-04 -3.3161361499562080e-03 1.9562940228071542e-02  -2.8923662539399636e-04 -3.1900472132910481e-03 1.7014543333993683e-02  -1.7180705187139320e-04 -2.9729230840002518e-03 1.5397898439544673e-02  -1.4246477908054958e-05 -2.9469337477593168e-03 1.5519639742985897e-02  -1.3337315177256926e-05 -2.9180561833860334e-03 1.5347666860442897e-02  -1.3782781152368570e-05 -2.8759318964942594e-03 1.5230700386743319e-02  -1.1716288744025718e-05 -2.8411899208003540e-03 1.5124940887999651e-02  -1.2828383020971844e-05 -2.8042052057048309e-03 1.5005040205826272e-02  -1.3156655118173982e-05 -2.7656656541510437e-03 1.4880127285882968e-02  -1.2265514317128707e-05 -2.7251446087674719e-03 1.4755934992956275e-02  -2.0941117168688504e-05 -2.6791592883909756e-03 1.4616823658729516e-02  -8.1412046480102660e-06 -2.6470081610266709e-03 1.4460457493774195e-02  -4.6070622925691734e-06 -2.6014616996510274e-03 1.4516930979565234e-02  1.1147606130178215e-07 -2.4736767211021465e-03 1.3582183200783119e-02  2.7015121497322672e-04 -2.5433311081872949e-03 1.3095028530646636e-02  3.9440701801207110e-04 -3.0161003256072563e-03 1.6554731885908617e-02  -7.3170536155556400e-05 -3.6329789322251419e-03 1.8390709030563585e-02  0.0000000000000000e+00 0.0000000000000000e+00 0.0000000000000000e+00  7.8139395840706380e-04 -1.4012291628129291e-03 5.5694258526143656e-03  3.0484462156624761e-04 -2.0860263583680101e-03 9.1807878199781038e-03  -1.7983520593342376e-04 -2.0346267120504176e-03 7.7895424565632403e-03  -1.0962858998709175e-04 -1.8997137306760478e-03 6.9372167091003752e-03  3.9595166778952463e-06 -1.8762905864425953e-03 7.1093188294952371e-03  3.9973407322429297e-06 -1.8555617251340805e-03 7.1183663477862296e-03  3.5609282593144866e-06 -1.8287818326564590e-03 7.1585219630925165e-03  6.4340665230263399e-06 -1.8059752417005611e-03 7.2156846234917053e-03  6.4513970464076374e-06 -1.7818225101909424e-03 7.2696368044710717e-03  6.7072718961326511e-06 -1.7566226106052467e-03 7.3270076511264349e-03  7.3832849747639958e-06 -1.7302036069315396e-03 7.3882624579354721e-03  4.1931372610136246e-06 -1.7000936908826080e-03 7.4492230390313932e-03  1.0002119165275607e-05 -1.6785945754418086e-03 7.4966799984391187e-03  1.1268655689593988e-05 -1.6508844406361491e-03 7.6827281806972694e-03  1.2619450639899492e-05 -1.5706842942006523e-03 7.3163753865111304e-03  1.8578771614635828e-04 -1.6044854962711744e-03 7.0186119080464194e-03  3.2988704911213667e-04 -1.8799480107013842e-03 8.8959456003732847e-03  -2.2390200491758462e-04 -2.3848417179195432e-03 1.0251425625214581e-02  0.0000000000000000e+00 0.0000000000000000e+00 0.0000000000000000e+00  5.4165095593981413e-06 -7.1791619555798796e-07 1.6693091109506754e-05  1.0543650443383525e-05 -2.2844615829207118e-06 6.3322268675443020e-05  1.5029899608338345e-05 -4.6432235171397210e-06 1.3674826476372284e-04  1.8951552265372968e-05 -7.6949383045738562e-06 2.3368922658760255e-04  2.2350111957395345e-05 -1.1351453320533960e-05 3.5109211233289191e-04  2.5263755291757718e-05 -1.5530254633384370e-05 4.8611119526496447e-04  2.7731072310080428e-05 -2.0154495139500097e-05 6.3612128864246574e-04  2.9790377401161376e-05 -2.5153817610695711e-05 7.9871479744640021e-04  3.1479715590687178e-05 -3.0463776839240890e-05 9.7170036159120753e-04  3.2836867533658682e-05 -3.6026062525438498e-05 1.1531016403083555e-03  3.3899307113429545e-05 -4.1788558306552947e-05 1.3411556508653151e-03  3.4704197421009226e-05 -4.7705398091170161e-05 1.5343110748284217e-03  3.5288422744265678e-05 -5.3737047001332335e-05 1.7312266648592250e-03  3.5688420140385482e-05 -5.9849912390560282e-05 1.9307691618863296e-03  3.5940719090012062e-05 -6.6017057377400223e-05 2.1320108297743210e-03  3.6080855547364236e-05 -7.2218591322906065e-05 2.3342374876867333e-03  3.6140255090182494e-05 -7.8439119970443870e-05 2.5369243696698801e-03  3.6152912063102339e-05 -8.4668458424471977e-05 2.7397044268759646e-03  0.0000000000000000e+00 0.0000000000000000e+00 0.0000000000000000e+00  5.4049225752902062e-06 -1.1633895704252061e-06 1.6418530552561812e-05  1.0821992760415779e-05 -2.6423299771053835e-06 6.3019904604616299e-05  1.5526566216902121e-05 -4.9549528973227845e-06 1.3642020008992076e-04  1.9640985767670452e-05 -7.9658162753765924e-06 2.3333812000571211e-04  2.3208726874922809e-05 -1.1584564227833390e-05 3.5072097176554830e-04  2.6269213155608949e-05 -1.5728505440187685e-05 4.8572270241446818e-04  2.8862568088953119e-05 -2.0320788073585809e-05 6.3571788690760329e-04  3.1028708572035039e-05 -2.5291032397749962e-05 7.9829867511172566e-04  3.2807245509312342e-05 -3.0574777823986693e-05 9.7127348128875433e-04  3.4237558384617960e-05 -3.6113692849161647e-05 1.1526657330149599e-03  3.5358736198140667e-05 -4.1855638330545165e-05 1.3407122201485125e-03  3.6209570722629392e-05 -4.7754724185632052e-05 1.5338613916698121e-03  3.6828547860014002e-05 -5.3771391867890903e-05 1.7307717778157106e-03  3.7253746661942755e-05 -5.9872038357862221e-05 1.9303099054095224e-03  3.7523373412658379e-05 -6.6029716119131524e-05 2.1315478679251863e-03  3.7674669714152806e-05 -7.2224244702895417e-05 2.3337713333204872e-03  3.7740590177160988e-05 -7.8439966578071880e-05 2.5364553351380019e-03  3.7756036958575600e-05 -8.4666989545446457e-05 2.7392332208280188e-03  0.0000000000000000e+00 0.0000000000000000e+00 0.0000000000000000e+00  8.3873950658468058e-04 1.3719044019251780e-03 6.7809515920644117e-03  2.5395262913529914e-04 2.0633742510558035e-03 9.5236271490858355e-03  -1.5421370407538631e-04 2.0553257158727012e-03 7.7071926888645894e-03  -8.6040419166856806e-05 1.9372448543166871e-03 7.0887502147674170e-03  -1.0887966285695900e-06 1.8758258363752798e-03 7.2868774763611465e-03  -3.8734067719105193e-07 1.8264348614967483e-03 7.2855258971784229e-03  1.2771649999709835e-06 1.7913465790188898e-03 7.3333219656197685e-03  1.9933436585076893e-06 1.7530362379892409e-03 7.3781001249188507e-03  1.5957660896441996e-06 1.7122897712646230e-03 7.4243103159613013e-03  1.8327462137080940e-06 1.6695461356856047e-03 7.4725694630571509e-03  2.3954012028275587e-06 1.6253495063453739e-03 7.5254545121234660e-03  -2.7082193304984562e-06 1.5818311004134234e-03 7.5700339081504362e-03  7.3687022234740534e-06 1.5303464708583433e-03 7.6217332154355768e-03  6.1991667045588192e-06 1.4701511285852671e-03 7.7950973967161174e-03  -1.8737805844856214e-05 1.3836603522867489e-03 7.4168482216934086e-03  1.3616985378515288e-04 1.3730411936752488e-03 7.0530648147504958e-03  2.5693060092796347e-04 1.6464043453588355e-03 8.6395607200431563e-03  -1.3914670382706600e-04 2.0500888001368355e-03 9.1493007962989981e-03  0.0000000000000000e+00 0.0000000000000000e+00 0.0000000000000000e+00  1.2196959007695373e-03 2.1864825891560100e-03 1.3615229539011073e-02  3.8724747841779666e-04 3.5693878140279534e-03 2.0107064009553994e-02  -2.8515620214852508e-04 3.6649433336540622e-03 1.7171427117626970e-02  -1.5402625712496231e-04 3.4829432892962120e-03 1.5747274799338178e-02  -5.1425944585340785e-06 3.3737377549679978e-03 1.5900665441099974e-02  -1.4161014244120424e-05 3.2863270699554845e-03 1.5719940991100641e-02  -1.7420164306946872e-05 3.2248985515534439e-03 1.5611481048190089e-02  -1.6451645516108948e-05 3.1611121738199690e-03 1.5498146495997792e-02  -1.8538218691644327e-05 3.0931155207089911e-03 1.5372039303587274e-02  -1.9374729740297284e-05 3.0218339638776875e-03 1.5240026145862517e-02  -1.9254484541427983e-05 2.9480846218724625e-03 1.5106455032497381e-02  -2.6384147336086247e-05 2.8756884371356666e-03 1.4959457803762588e-02  -1.2369850031623404e-05 2.7876254267694225e-03 1.4792966102051859e-02  -