<?xml version="1.0"?>
<VTKFile type="UnstructuredGrid"  version="0.1"  >
<UnstructuredGrid>
<Piece  NumberOfPoints="760" NumberOfCells="3024">
<Points>
<DataArray  type="Float64"  NumberOfComponents="3"  format="ascii">0 0 0  0.05555555555555555 0 0  0.1111111111111111 0 0  0.1666666666666667 0 0  0.2222222222222222 0 0  0.2777777777777778 0 0  0.3333333333333333 0 0  0.3888888888888889 0 0  0.4444444444444444 0 0  0.5 0 0  0.5555555555555556 0 0  0.6111111111111112 0 0  0.6666666666666666 0 0  0.7222222222222222 0 0  0.7777777777777778 0 0  0.8333333333333334 0 0  0.8888888888888888 0 0  0.9444444444444444 0 0  1 0 0  0 0.01428571428571429 0  0.05555555555555555 0.01428571428571429 0  0.1111111111111111 0.01428571428571429 0  0.1666666666666667 0.01428571428571429 0  0.2222222222222222 0.01428571428571429 0  0.2777777777777778 0.01428571428571429 0  0.3333333333333333 0.01428571428571429 0  0.3888888888888889 0.01428571428571429 0  0.4444444444444444 0.01428571428571429 0  0.5 0.01428571428571429 0  0.5555555555555556 0.01428571428571429 0  0.6111111111111112 0.01428571428571429 0  0.6666666666666666 0.01428571428571429 0  0.7222222222222222 0.01428571428571429 0  0.7777777777777778 0.01428571428571429 0  0.8333333333333334 0.01428571428571429 0  0.8888888888888888 0.01428571428571429 0  0.9444444444444444 0.01428571428571429 0  1 0.01428571428571429 0  0 0.02857142857142857 0  0.05555555555555555 0.02857142857142857 0  0.1111111111111111 0.02857142857142857 0  0.1666666666666667 0.02857142857142857 0  0.2222222222222222 0.02857142857142857 0  0.2777777777777778 0.02857142857142857 0  0.3333333333333333 0.02857142857142857 0  0.3888888888888889 0.02857142857142857 0  0.4444444444444444 0.02857142857142857 0  0.5 0.02857142857142857 0  0.5555555555555556 0.02857142857142857 0  0.6111111111111112 0.02857142857142857 0  0.6666666666666666 0.02857142857142857 0  0.7222222222222222 0.02857142857142857 0  0.7777777777777778 0.02857142857142857 0  0.8333333333333334 0.02857142857142857 0  0.8888888888888888 0.02857142857142857 0  0.9444444444444444 0.02857142857142857 0  1 0.02857142857142857 0  0 0.04285714285714286 0  0.05555555555555555 0.04285714285714286 0  0.1111111111111111 0.04285714285714286 0  0.1666666666666667 0.04285714285714286 0  0.2222222222222222 0.04285714285714286 0  0.2777777777777778 0.04285714285714286 0  0.3333333333333333 0.04285714285714286 0  0.3888888888888889 0.04285714285714286 0  0.4444444444444444 0.04285714285714286 0  0.5 0.04285714285714286 0  0.5555555555555556 0.04285714285714286 0  0.6111111111111112 0.04285714285714286 0  0.6666666666666666 0.04285714285714286 0  0.7222222222222222 0.04285714285714286 0  0.7777777777777778 0.04285714285714286 0  0.8333333333333334 0.04285714285714286 0  0.8888888888888888 0.04285714285714286 0  0.9444444444444444 0.04285714285714286 0  1 0.04285714285714286 0  0 0.05714285714285715 0  0.05555555555555555 0.05714285714285715 0  0.1111111111111111 0.05714285714285715 0  0.1666666666666667 0.05714285714285715 0  0.2222222222222222 0.05714285714285715 0  0.2777777777777778 0.05714285714285715 0  0.3333333333333333 0.05714285714285715 0  0.3888888888888889 0.05714285714285715 0  0.4444444444444444 0.05714285714285715 0  0.5 0.05714285714285715 0  0.5555555555555556 0.05714285714285715 0  0.6111111111111112 0.05714285714285715 0  0.6666666666666666 0.05714285714285715 0  0.7222222222222222 0.05714285714285715 0  0.7777777777777778 0.05714285714285715 0  0.8333333333333334 0.05714285714285715 0  0.8888888888888888 0.05714285714285715 0  0.9444444444444444 0.05714285714285715 0  1 0.05714285714285715 0  0 0.07142857142857142 0  0.05555555555555555 0.07142857142857142 0  0.1111111111111111 0.07142857142857142 0  0.1666666666666667 0.07142857142857142 0  0.2222222222222222 0.07142857142857142 0  0.2777777777777778 0.07142857142857142 0  0.3333333333333333 0.07142857142857142 0  0.3888888888888889 0.07142857142857142 0  0.4444444444444444 0.07142857142857142 0  0.5 0.07142857142857142 0  0.5555555555555556 0.07142857142857142 0  0.6111111111111112 0.07142857142857142 0  0.6666666666666666 0.07142857142857142 0  0.7222222222222222 0.07142857142857142 0  0.7777777777777778 0.07142857142857142 0  0.8333333333333334 0.07142857142857142 0  0.8888888888888888 0.07142857142857142 0  0.9444444444444444 0.07142857142857142 0  1 0.07142857142857142 0  0 0.08571428571428573 0  0.05555555555555555 0.08571428571428573 0  0.1111111111111111 0.08571428571428573 0  0.1666666666666667 0.08571428571428573 0  0.2222222222222222 0.08571428571428573 0  0.2777777777777778 0.08571428571428573 0  0.3333333333333333 0.08571428571428573 0  0.3888888888888889 0.08571428571428573 0  0.4444444444444444 0.08571428571428573 0  0.5 0.08571428571428573 0  0.5555555555555556 0.08571428571428573 0  0.6111111111111112 0.08571428571428573 0  0.6666666666666666 0.08571428571428573 0  0.7222222222222222 0.08571428571428573 0  0.7777777777777778 0.08571428571428573 0  0.8333333333333334 0.08571428571428573 0  0.8888888888888888 0.08571428571428573 0  0.9444444444444444 0.08571428571428573 0  1 0.08571428571428573 0  0 0.1 0  0.05555555555555555 0.1 0  0.1111111111111111 0.1 0  0.1666666666666667 0.1 0  0.2222222222222222 0.1 0  0.2777777777777778 0.1 0  0.3333333333333333 0.1 0  0.3888888888888889 0.1 0  0.4444444444444444 0.1 0  0.5 0.1 0  0.5555555555555556 0.1 0  0.6111111111111112 0.1 0  0.6666666666666666 0.1 0  0.7222222222222222 0.1 0  0.7777777777777778 0.1 0  0.8333333333333334 0.1 0  0.8888888888888888 0.1 0  0.9444444444444444 0.1 0  1 0.1 0  0 0 0.01  0.05555555555555555 0 0.01  0.1111111111111111 0 0.01  0.1666666666666667 0 0.01  0.2222222222222222 0 0.01  0.2777777777777778 0 0.01  0.3333333333333333 0 0.01  0.3888888888888889 0 0.01  0.4444444444444444 0 0.01  0.5 0 0.01  0.5555555555555556 0 0.01  0.6111111111111112 0 0.01  0.6666666666666666 0 0.01  0.7222222222222222 0 0.01  0.7777777777777778 0 0.01  0.8333333333333334 0 0.01  0.8888888888888888 0 0.01  0.9444444444444444 0 0.01  1 0 0.01  0 0.01428571428571429 0.01  0.05555555555555555 0.01428571428571429 0.01  0.1111111111111111 0.01428571428571429 0.01  0.1666666666666667 0.01428571428571429 0.01  0.2222222222222222 0.01428571428571429 0.01  0.2777777777777778 0.01428571428571429 0.01  0.3333333333333333 0.01428571428571429 0.01  0.3888888888888889 0.01428571428571429 0.01  0.4444444444444444 0.01428571428571429 0.01  0.5 0.01428571428571429 0.01  0.5555555555555556 0.01428571428571429 0.01  0.6111111111111112 0.01428571428571429 0.01  0.6666666666666666 0.01428571428571429 0.01  0.7222222222222222 0.01428571428571429 0.01  0.7777777777777778 0.01428571428571429 0.01  0.8333333333333334 0.01428571428571429 0.01  0.8888888888888888 0.01428571428571429 0.01  0.9444444444444444 0.01428571428571429 0.01  1 0.01428571428571429 0.01  0 0.02857142857142857 0.01  0.05555555555555555 0.02857142857142857 0.01  0.1111111111111111 0.02857142857142857 0.01  0.1666666666666667 0.02857142857142857 0.01  0.2222222222222222 0.02857142857142857 0.01  0.2777777777777778 0.02857142857142857 0.01  0.3333333333333333 0.02857142857142857 0.01  0.3888888888888889 0.02857142857142857 0.01  0.4444444444444444 0.02857142857142857 0.01  0.5 0.02857142857142857 0.01  0.5555555555555556 0.02857142857142857 0.01  0.6111111111111112 0.02857142857142857 0.01  0.6666666666666666 0.02857142857142857 0.01  0.7222222222222222 0.02857142857142857 0.01  0.7777777777777778 0.02857142857142857 0.01  0.8333333333333334 0.02857142857142857 0.01  0.8888888888888888 0.02857142857142857 0.01  0.9444444444444444 0.02857142857142857 0.01  1 0.02857142857142857 0.01  0 0.04285714285714286 0.01  0.05555555555555555 0.04285714285714286 0.01  0.1111111111111111 0.04285714285714286 0.01  0.1666666666666667 0.04285714285714286 0.01  0.2222222222222222 0.04285714285714286 0.01  0.2777777777777778 0.04285714285714286 0.01  0.3333333333333333 0.04285714285714286 0.01  0.3888888888888889 0.04285714285714286 0.01  0.4444444444444444 0.04285714285714286 0.01  0.5 0.04285714285714286 0.01  0.5555555555555556 0.04285714285714286 0.01  0.6111111111111112 0.04285714285714286 0.01  0.6666666666666666 0.04285714285714286 0.01  0.7222222222222222 0.04285714285714286 0.01  0.7777777777777778 0.04285714285714286 0.01  0.8333333333333334 0.04285714285714286 0.01  0.8888888888888888 0.04285714285714286 0.01  0.9444444444444444 0.04285714285714286 0.01  1 0.04285714285714286 0.01  0 0.05714285714285715 0.01  0.05555555555555555 0.05714285714285715 0.01  0.1111111111111111 0.05714285714285715 0.01  0.1666666666666667 0.05714285714285715 0.01  0.2222222222222222 0.05714285714285715 0.01  0.2777777777777778 0.05714285714285715 0.01  0.3333333333333333 0.05714285714285715 0.01  0.3888888888888889 0.05714285714285715 0.01  0.4444444444444444 0.05714285714285715 0.01  0.5 0.05714285714285715 0.01  0.5555555555555556 0.05714285714285715 0.01  0.6111111111111112 0.05714285714285715 0.01  0.6666666666666666 0.05714285714285715 0.01  0.7222222222222222 0.05714285714285715 0.01  0.7777777777777778 0.05714285714285715 0.01  0.8333333333333334 0.05714285714285715 0.01  0.8888888888888888 0.05714285714285715 0.01  0.9444444444444444 0.05714285714285715 0.01  1 0.05714285714285715 0.01  0 0.07142857142857142 0.01  0.05555555555555555 0.07142857142857142 0.01  0.1111111111111111 0.07142857142857142 0.01  0.1666666666666667 0.07142857142857142 0.01  0.2222222222222222 0.07142857142857142 0.01  0.2777777777777778 0.07142857142857142 0.01  0.3333333333333333 0.07142857142857142 0.01  0.3888888888888889 0.07142857142857142 0.01  0.4444444444444444 0.07142857142857142 0.01  0.5 0.07142857142857142 0.01  0.5555555555555556 0.07142857142857142 0.01  0.6111111111111112 0.07142857142857142 0.01  0.6666666666666666 0.07142857142857142 0.01  0.7222222222222222 0.07142857142857142 0.01  0.7777777777777778 0.07142857142857142 0.01  0.8333333333333334 0.07142857142857142 0.01  0.8888888888888888 0.07142857142857142 0.01  
[...]
<PointData  Vectors="f_36"> 
<DataArray  type="Float64"  Name="f_36"  NumberOfComponents="3" format="ascii">0.0000000000000000e+00 0.0000000000000000e+00 0.0000000000000000e+00  -2.7288906860231661e-03 5.3134534110000735e-03 -1.2625784952708169e-02  -2.8015510112651579e-03 9.8129946992745985e-03 -2.6618757392818080e-02  -1.3293746746354167e-03 1.2356875099067601e-02 -3.6184789056773255e-02  5.5313183513015882e-04 1.2222355209250659e-02 -3.6881896758893078e-02  1.0752343269008293e-03 1.0647336136562807e-02 -3.0968561841184343e-02  3.2693149321542415e-04 9.7975177973232443e-03 -2.7822883062525654e-02  -2.6408778547033593e-05 9.7827097541321045e-03 -2.8690287107839170e-02  1.1822821713648342e-04 9.5998530581318138e-03 -2.8456426798842221e-02  1.7753389564202057e-04 9.2464947184886567e-03 -2.7502417834071601e-02  1.0142152668604058e-04 8.9539942488640351e-03 -2.6776962003873264e-02  4.0804894581091791e-05 8.7489672362329757e-03 -2.6563760378350378e-02  2.8096523532107409e-04 8.3484299973313764e-03 -2.6074831172701558e-02  3.0885121399466841e-04 7.6705008901583752e-03 -2.3730338555521292e-02  -1.0403857182585638e-04 7.4599755072862397e-03 -2.2882955239915966e-02  -2.4654179409165156e-04 7.7902622851819215e-03 -2.4444253219679114e-02  -4.2801156542028972e-05 8.0576112778989861e-03 -2.5600345075907412e-02  3.8848559147314416e-04 8.1983839394389330e-03 -2.6149210551170129e-02  9.1085234612147444e-04 8.6696905951128694e-03 -2.5747893804441271e-02  0.0000000000000000e+00 0.0000000000000000e+00 0.0000000000000000e+00  -2.6277955704578763e-03 4.5356149330731893e-03 -7.9049480230300988e-03  -2.7553345258416887e-03 8.7333270935146760e-03 -1.7775297979693305e-02  -1.4308268305005033e-03 1.1290888219070499e-02 -2.4936635624137730e-02  3.8808294302933343e-04 1.1369088140371623e-02 -2.5750425846387832e-02  1.0710285335145682e-03 9.9505908540125400e-03 -2.1350898360605514e-02  3.9105402137936329e-04 9.0866363957975531e-03 -1.8946971635458717e-02  -5.4615664292945987e-05 9.0465977974146222e-03 -1.9792564502603943e-02  9.0834620116332204e-05 8.8979573116299907e-03 -1.9767968922422236e-02  1.6842216145613023e-04 8.5761671366270543e-03 -1.9141706744440597e-02  1.0340745949746659e-04 8.3024405742122016e-03 -1.8693032336156351e-02  3.4920630201319092e-05 8.1178737091429937e-03 -1.8655070718055045e-02  2.2778265715239575e-04 7.7723215381978444e-03 -1.8527144906386891e-02  3.2310160811045279e-04 7.1409088974695020e-03 -1.6851702595056466e-02  -5.4617774834351054e-05 6.8969459257928649e-03 -1.6182797328786139e-02  -2.6268769958392524e-04 7.1833200487956125e-03 -1.7429327404689259e-02  -1.0414006138951199e-04 7.4452977147026009e-03 -1.8370439657526480e-02  2.0057128478160937e-04 7.5989714618260838e-03 -1.8909078850056486e-02  9.1244904892855041e-04 8.2736000097858534e-03 -1.9016234087650970e-02  0.0000000000000000e+00 0.0000000000000000e+00 0.0000000000000000e+00  -1.6068529128247422e-03 2.7812268224766874e-03 -3.3697803828953939e-03  -1.7356954311655555e-03 5.6295863898784566e-03 -8.1558814414254537e-03  -9.5447286011824241e-04 7.5282286833465691e-03 -1.1845817850462821e-02  1.6858179891870737e-04 7.7158754945491452e-03 -1.2467310367760932e-02  6.5373072277338253e-04 6.7304746785821802e-03 -1.0307796388874762e-02  2.5105415081568065e-04 6.0741767004554009e-03 -9.1035555916516506e-03  -6.6266833348033570e-05 6.0569294912570341e-03 -9.6829769772166698e-03  2.1358596813792635e-05 5.9835980391628714e-03 -9.8137938408877964e-03  7.6376321411965228e-05 5.7707369605177550e-03 -9.6096330980932811e-03  3.7508739584960021e-05 5.5866884332569523e-03 -9.5030791932849794e-03  -7.2924366046882499e-06 5.4773234494764180e-03 -9.6141905705432532e-03  9.7208945974274399e-05 5.2740176576107434e-03 -9.7454714717111340e-03  1.7893394745991745e-04 4.8334863076082094e-03 -9.0211731948292018e-03  -4.6055820380312401e-05 4.6322104691251314e-03 -8.7444479293943191e-03  -2.0269338032072147e-04 4.8313209794870636e-03 -9.5018014806263120e-03  -1.1952116875521448e-04 5.0340921908943225e-03 -1.0105966775015567e-02  -7.2092293082223050e-06 5.1345800628430820e-03 -1.0521295358092373e-02  9.4656329099056236e-04 6.0326832799260065e-03 -1.0953295405838290e-02  0.0000000000000000e+00 0.0000000000000000e+00 0.0000000000000000e+00  -1.3243270281975376e-05 1.1126409895690389e-06 -1.9929456911974464e-05  -2.4978840222445223e-05 3.4951560385165037e-06 -7.4017476498008361e-05  -3.5265067100551497e-05 7.1049273550916606e-06 -1.5907863984981595e-04  -4.4173219468786351e-05 1.1758107095814911e-05 -2.7103726932678588e-04  -5.1836553258196265e-05 1.7310250536125702e-05 -4.0619628573025873e-04  -5.8372825818494150e-05 2.3631491003002164e-05 -5.6124837088494426e-04  -6.3875311013743223e-05 3.0605295538077784e-05 -7.3316488094636763e-04  -6.8435412860501921e-05 3.8124384264152483e-05 -9.1915311122899284e-04  -7.2149336560643236e-05 4.6090947279791670e-05 -1.1166940202652301e-03  -7.5110963614577730e-05 5.4418100725165445e-05 -1.3235409895504290e-03  -7.7410426719027768e-05 6.3029329055631114e-05 -1.5377049575039175e-03  -7.9136516503887765e-05 7.1857930810192215e-05 -1.7574460073768979e-03  -8.0378830098085032e-05 8.0847119150491875e-05 -1.9812751213579283e-03  -8.1221155800627310e-05 8.9950321744211654e-05 -2.2079602251521909e-03  -8.1738076450775312e-05 9.9129564489217203e-05 -2.4364864916885296e-03  -8.2005375859631015e-05 1.0835350433233976e-04 -2.6660361361700784e-03  -8.2105081394594475e-05 1.1759880238317324e-04 -2.8960162688450330e-03  -8.2122890984931733e-05 1.2685278424633210e-04 -3.1260748345422066e-03  0.0000000000000000e+00 0.0000000000000000e+00 0.0000000000000000e+00  -1.2502711178420441e-05 1.8162928849536402e-06 -1.9721300720148974e-05  -2.4710272890972669e-05 4.1160195771498632e-06 -7.3715015947636435e-05  -3.5425915679581713e-05 7.6446782084648944e-06 -1.5873492533013009e-04  -4.4708504900539820e-05 1.2222358066480460e-05 -2.7065643783819715e-04  -5.2697704897791660e-05 1.7707275549820091e-05 -4.0578333852075933e-04  -5.9518848054677659e-05 2.3966917956504596e-05 -5.6080828353142380e-04  -6.5269324227545868e-05 3.0883817812672280e-05 -7.3270136578809967e-04  -7.0041739614213898e-05 3.8351586935089275e-05 -9.1866901264379746e-04  -7.3935008729136977e-05 4.6272523025074321e-05 -1.1161921122452556e-03  -7.7046246414501414e-05 5.4559389607553268e-05 -1.3230237672081076e-03  -7.9468460547909656e-05 6.3135493639051711e-05 -1.5371745484244403e-03  -8.1292874485952002e-05 7.1934255882989689e-05 -1.7569042199702127e-03  -8.2611558914226152e-05 8.0898881601170860e-05 -1.9807235304815816e-03  -8.3512082431674452e-05 8.9981906806529380e-05 -2.2074002566219333e-03  -8.4071591279170782e-05 9.9145020332872105e-05 -2.4359192916981044e-03  -8.4366818784679948e-05 1.0835752503305835e-04 -2.6654626835382845e-03  -8.4481561103036748e-05 1.1759639656139752e-04 -2.8954374743571194e-03  -8.4503935587215584e-05 1.2684804813027715e-04 -3.1254910790707389e-03  0.0000000000000000e+00 0.0000000000000000e+00 0.0000000000000000e+00  -1.7431872717082280e-03 -3.0170414352113451e-03 -4.8166844702084502e-03  -1.6585893694164998e-03 -6.0420824750533619e-03 -9.9905390154134514e-03  -7.6417973699415454e-04 -8.1570321877432756e-03 -1.3369916498827338e-02  3.1668502053028107e-04 -8.5214666221897183e-03 -1.3381873709685174e-02  5.9829800812221800e-04 -7.5338567228965788e-03 -1.0984684290316283e-02  1.3732414602766013e-04 -6.7544056874903006e-03 -1.0046475282463571e-02  -7.8892449860395547e-05 -6.6790155280027942e-03 -1.0697072289393419e-02  1.8003430130826515e-05 -6.5986896431079935e-03 -1.0699035807951771e-02  5.4845603887812810e-05 -6.3616209152365958e-03 -1.0480555521611578e-02  9.6440224463867694e-06 -6.1287944167674807e-03 -1.0379773022013941e-02  -3.0896572148756707e-05 -5.9607997589024402e-03 -1.0464542862695415e-02  1.0496150050536247e-04 -5.7636033636989225e-03 -1.0535829678094620e-02  1.7445721464228559e-04 -5.3204537885051372e-03 -9.7757072450698097e-03  -3.6849819495159848e-05 -4.9802009329836449e-03 -9.4295810192956599e-03  -1.6270447051312364e-04 -5.0216379812473792e-03 -1.0057036811967710e-02  -9.7011324402086787e-05 -5.1609128490181493e-03 -1.0545464371132025e-02  6.8617340303268214e-05 -5.3479350837783790e-03 -1.0861527922100043e-02  6.2428863648814439e-04 -6.0600906190622812e-03 -1.0651046180234845e-02  0.0000000000000000e+00 0.0000000000000000e+00 0.0000000000000000e+00  -2.7619196678121401e-03 -3.8868715508968274e-03 -9.3840164006526623e-03  -2.7071126971401367e-03 -8.1331514317874287e-03 -1.9457738805938048e-02  -1.2905268604348785e-03 -1.1222431673508304e-02 -2.6160842952376362e-02  4.8825201312922004e-04 -1.1964438134972914e-02 -2.6468682125620677e-02  1.0471725024275402e-03 -1.0738675410365096e-02 -2.1961730282240469e-02  3.0170615656321801e-04 -9.6086583490671094e-03 -1.9807840219742186e-02  -1.0776506819486568e-04 -9.4286796748118320e-03 -2.0718974917905995e-02  6.4671094608012835e-05 -9.3235287069405749e-03 -2.0584188114424494e-02  1.3786190667220371e-04 -9.0044881160683890e-03 -1.9957641312744814e-02  6.9617942237139841e-05 -8.6691725154415741e-03 -1.9519980096622255e-02  -1.0357671119754594e-06 -8.4168164553388176e-03 -1.9391793609277931e-02  1.9830255331249405e-04 -8.1497400767542166e-03 -1.9284202029358349e-02  3.4587117341244319e-04 -7.5690649584227790e-03 -1.7693689708082178e-02  1.5645760926929299e-05 -7.0838397661084343e-03 -1.6759328023749853e-02  -2.1667085389731104e-04 -7.1002274244464057e-03 -1.7652194370331217e-02  -8.8140949396276960e-05 -7.2919311133488353e-03 -1.8383892109974254e-02  1.8626075339807488e-04 -7.6093879623761332e-03 -1.8810771940868148e-02  6.0317917402046256e-04 -8.7459265047582398e-03 -1.8390046435365064e-02  0.0000000000000000e+00 0.0000000000000000e+00 0.0000000000000000e+00  -2.8198880961307574e-03 -3.7878601291147880e-03 -1.2837171754973844e-02  -2.9120659359201627e-03 -8.3575789176131669e-03 -2.6676597611151723e-02  -1.5207466358166893e-03 -1.1779283466373840e-02 -3.6123277373355620e-02  3.9011385590659748e-04 -1.2756207348669699e-02 -3.7103965880578682e-02  1.1825200645974947e-03 -1.1555825594146637e-02 -3.1435126270610861e-02  4.0529660098702347e-04 -1.0327611865874699e-02 -2.8242180731240400e-02  -1.5490543078687606e-04 -1.0090562911342665e-02 -2.9077130636357654e-02  4.6621873734353944e-05 -9.9777453195407408e-03 -2.8858811558991081e-02  1.4794467960670273e-04 -9.6462086505666247e-03 -2.7936289123169349e-02  7.8834000416795434e-05 -9.2846450445794419e-03 -2.7215721039209693e-02  -7.9090530051333669e-06 -9.0091263721967432e-03 -2.6853906757978156e-02  1.5954797402627539e-04 -8.7349979955173036e-03 -2.6543526574589176e-02  3.8474894513434250e-04 -8.1302647544661977e-03 -2.4432991733659249e-02  6.9436445443237191e-05 -7.5989095239025880e-03 -2.3038892100909602e-02  -2.3424798387329396e-04 -7.5933084880836265e-03 -2.4000290720527274e-02  -7.2089976657619938e-05 -7.7979822307704472e-03 -2.4921212720912776e-02  3.1189952564899333e-04 -8.1407099138616421e-03 -2.5524936903667812e-02  6.8086818119539013e-04 -9.4486104301029425e-03 -2.5473836426379782e-02  0.0000000000000000e+00 0.0000000000000000e+00 0.0000000000000000e+00  -1.1055016791228654e-03 2.0895241034985415e-03 -1.2186999867679493e-02  -1.2875527888251423e-03 4.1380931570252502e-03 -2.6193978874295677e-02  -7.0255860013190309e-04 5.3545696889025071e-03 -3.5838218171329449e-02  1.6558125126803279e-04 5.3718014322162262e-03 -3.6638390834579572e-02  5.1318539303410124e-04 4.6601429296178158e-03 -3.0727874649136840e-02  2.2398807075351993e-04 4.2360725868924648e-03 -2.7521185470201052e-02  1.0800511486475793e-05 4.2391763452365241e-03 -2.8395831176733558e-02  4.2438985690711530e-05 4.1838468095051640e-03 -2.8197718922876806e-02  8.0456727965902595e-05 4.0327795951970065e-03 -2.7250565816915210e-02  5.8989249888055181e-05 3.9043418963286510e-03 -2.6523941287898617e-02  1.1003900764413365e-05 3.8246531369978249e-03 -2.6319745611804411e-02  8.7317289154232314e-05 3.6750507227872502e-03 -2.5866707021744567e-02  1.1816006130281189e-04 3.3677634510514416e-03 -2.3531948383581521e-02  -3.1285155979909547e-05 3.2420076604683487e-03 -2.2651561116300449e-02  -7.4574117241761256e-05 3.3924671745577712e-03 -2.4204940236574241e-02  5.8743908171303036e-05 3.5318523431493274e-03 -2.5372877205315513e-02  3.7816282890446647e-04 3.6888169182474999e-03 -2.5922777223547810e-02  8.0770698743929661e-04 4.2100020178648606e-03 -2.5521888072430537e-02  0.0000000000000000e+00 0.0000000000000000e+00 0.0000000000000000e+00  -1.1952777159945651e-03 1.8378667062950366e-03 -7.5891152978652347e-03  -1.3615395866540313e-03 3.6202043862713302e-03 -1.7445560427211855e-02  -7.6739425680390726e-04 4.7348307667409812e-03 -2.4642354256831429e-02  1.2568493804440966e-04 4.8075709962766130e-03 -2.5517343581596193e-02  5.3650910650830425e-04 4.2157143361386011e-03 -2.1104940605887947e-02  2.5405828086011944e-04 3.8306126760069737e-03 -1.8645046909027917e-02  1.1388639059183447e-07 3.8132969907439286e-03 -1.9505430407125147e-02  3.6795286835491695e-05 3.7642737004717104e-03 -1.9517683152030479e-02  8.3242087380244682e-05 3.6330244319775218e-03 -1.8896273748350099e-02  6.2997280584606473e-05 3.5191128299938241e-03 -1.8447470794481960e-02  1.6125395129803557e-05 3.4462850576296561e-03 -1.8416427315453950e-02  8.4720223072608754e-05 3.3156750169956906e-03 -1.8319256192147387e-02  1.3905662678207780e-04 3.0503078091364943e-03 -1.6655241630026834e-02  -1.3381859248359982e-05 2.9292815198261701e-03 -1.5960810814582692e-02  -9.4844058906121573e-05 3.0497601534573656e-03 -1.7206588273077156e-02  6.4290072202877016e-06 3.1691731971244057e-03 -1.8159942871695697e-02  2.2501390596190229e-04 3.2895644605015497e-03 -1.8701916769367763e-02  7.5149989372621238e-04 3.8422820800483801e-03 -1.8862786332588390e-02  0.0000000000000000e+00 0.0000000000000000e+00 0.0000000000000000e+00  -7.9001233684190776e-04 1.1203963106457583e-03 -2.9954381006021048e-03  -9.0143015713576940e-04 2.2199879833649369e-03 -7.5825543795940030e-03  -5.2426519239454127e-04 2.9481629660980525e-03 -1.1165518157921028e-02  5.2207698468484415e-05 3.0304218257775988e-03 -1.1790608721019929e-02  3.4050168364619564e-04 2.6757126458843215e-03 -9.6554099160969173e-03  1.6672549537421834e-04 2.4293656947284143e-03 -8.4502366073436475e-03  -1.4117888283222718e-05 2.4139965088698914e-03 -9.0552019563965441e-03  8.1263259578280319e-06 2.3863956482132703e-03 -9.2228277345380045e-03  4.1359787490644602e-05 2.3083687734707726e-03 -9.0348987922535436e-03  2.8370499799681525e-05 2.2401737491649005e-03 -8.9418794976357310e-03  -7.9449915466889967e-07 2.1979837205769745e-03 -9.0698636540954940e-03  3.8945446588540475e-05 2.1219959955064887e-03 -9.2370237103578823e-03  8.2860653127529574e-05 1.9600220888816343e-03 -8.5445642266417203e-03  -1.3854245609597886e-05 1.8817332933479265e-03 -8.2647391995500624e-03  -8.3162930321046370e-05 1.9559917393760814e-03 -9.0182178146758270e-03  -3.2560006093515632e-05 2.0357594472860787e-03 -9.6235091815540623e-03  5.1204799835726323e-05 2.0922794179318444e-03 -1.0031945021772173e-02  6.6322511539894336e-04 2.5679858783997250e-03 -1.0473932697167770e-02  0.0000000000000000e+00 0.0000000000000000e+00 0.0000000000000000e+00  -6.2390443877091310e-06 1.0291592687412505e-06 -1.9380720781970595e-05  -1.2136828418080521e-05 3.3826755883468674e-06 -7.3525046888402921e-05  -1.7263040513821289e-05 6.9478895394115101e-06 -1.5864645571297335e-04  -2.1702634705109711e-05 1.1563102809601762e-05 -2.7066299689026279e-04  -2.5523264502611016e-05 1.7082232053230195e-05 -4.0587461131655187e-04  -2.8784571578055192e-05 2.3374728025473986e-05 -5.6097450657325632e-04  -3.1533336819642521e-05 3.0322971080973759e-05 -7.3293476773899366e-04  -3.3814240633119386e-05 3.7819446757608377e-05 -9.1896273374229441e-04  -3.5674542110283026e-05 4.5766304249799029e-05 -1.1165392688309021e-03  -3.7160695637603080e-05 5.4076370201152484e-05 -1.3234178660792035e-03  -3.8317260546943611e-05 6.2672822851860934e-05 -1.5376095969900150e-03  -3.9187924154317718e-05 7.1488794499174367e-05 -1.7573745983622928e-03  -3.9816727998211017e-05 8.0467400813852039e-05 -1.9812238703962883e-03  -4.0245402086543502e-05 8.9561673071803132e-05 -2.2079255912220404e-03  -4.0511128185596556e-05 9.8733345070713057e-05 -2.4364652238686117e-03  -4.0651129308633185e-05 1.0795119368662530e-04 -2.6660249004998035e-03  -4.0705560760545939e-05 1.1719199015240571e-04 -2.8960114679260547e-03  -4.0715796123021076e-05 1.2644234186190859e-04 -3.1260712414870281e-03  0.0000000000000000e+00 0.0000000000000000e+00 0.0000000000000000e+00  -6.3206437893949863e-06 1.5453568903546442e-06 -1.9060836409252646e-05  -1.2637298662757600e-05 3.7954932762274839e-06 -7.3170689996760756e-05  -1.8088277215662155e-05 7.3038378371574509e-06 -1.5825864683314921e-04  -2.2810383032150550e-05 1.1869455097995229e-05 -2.7024373785468575e-04  -2.6874700525199755e-05 1.7344497257000345e-05 -4.0542800588236143e-04  -3.0345417476254658e-05 2.3596888246983178e-05 -5.6050481444858060e-04  -3.3272655662714405e-05 3.0508255436077892e-05 -7.3244534075311331e-04  -3.5703310018437341e-05 3.7971347222781248e-05 -9.1845627506885268e-04  -3.7687230608688043e-05 4.5888431788003029e-05 -1.1160182961204616e-03  -3.9273709944281682e-05 5.4172178386385425e-05 -1.3228845861554817e-03  -4.0510001336953507e-05 6.2745642281872323e-05 -1.5370658802426654e-03  -4.1442325648261328e-05 7.1541968441362624e-05 -1.7568220400195865e-03  -4.2117231052462892e-05 8.0504259431808054e-05 -1.9806638050095878e-03  -4.2579190888444036e-05 8.9585146793216502e-05 -2.2073590905181619e-03  -4.2867607815266923e-05 9.8746123198916773e-05 -2.4358931867506425e-03  -4.3021393221861424e-05 1.0795621467969967e-04 -2.6654481979236978e-03  -4.3082795030694841e-05 1.1719233219404308e-04 -2.8954309318163329e-03  -4.3095687928283891e-05 1.2644054305858233e-04 -3.1254881203805498e-03  0.0000000000000000e+00 0.0000000000000000e+00 0.0000000000000000e+00  -8.7819103053958611e-04 -1.0708657753049386e-03 -4.2947922638632745e-03  -9.0176723701605082e-04 -2.1084059476946925e-03 -8.9423712204372060e-03  -4.7582579429983183e-04 -2.8559145902614606e-03 -1.1899274445666436e-02  1.0564382849032355e-04 -2.9993080154943944e-03 -1.1757974824153755e-02  3.3217746656713656e-04 -2.6609056965874261e-03 -9.4400013686061369e-03  1.1497898958048614e-04 -2.3800780177570735e-03 -8.6297748005811203e-03  -4.3602808910908119e-05 -2.3423351369092787e-03 -9.3486097545676505e-03  -4.8568673114518867e-06 -2.3080213599100835e-03 -9.3792879184959287e-03  2.5983740143091460e-05 -2.2200645239234115e-03 -9.1934291155178986e-03  5.3767443346162578e-06 -2.1304225544893922e-03 -9.1341449207084664e-03  -2.4850077918993446e-05 -2.0624797784230342e-03 -9.2558136155062014e-03  3.0632070481238658e-05 -1.9880282775614120e-03 -9.3737870973593165e-03  8.4039654935300748e-05 -1.8316469555167611e-03 -8.6810508132855180e-03  -6.6493336304423276e-06 -1.7078368212575998e-03 -8.3904041126179069e-03  -7.6685893020203536e-05 -1.7078702179160348e-03 -9.0342329230139358e-03  -3.5325385667223151e-05 -1.7445859052774729e-03 -9.5051646155315424e-03  5.0037723659179430e-05 -1.8394189478742500e-03 -9.7750497221128097e-03  4.7014073989562797e-04 -2.1598676408253765e-03 -9.2915707306020483e-03  0.0000000000000000e+00 0.0000000000000000e+00 0.0000000000000000e+00  -1.2711895907574231e-03 -1.6982772821298479e-03 -9.0658847073784975e-03  -1.3761883373682802e-03 -3.5981280765097511e-03 -1.9011052475908903e-02  -7.3600561689785991e-04 -5.0101906169268710e-03 -2.5567134513262976e-02  1.6166105014521134e-04 -5.3805188341881013e-03 -2.5800710074137641e-02  5.4166216370785960e-04 -4.8465866966550747e-03 -2.1259559619054888e-02  2.0809587178124118e-04 -4.3294510876250823e-03 -1.9107894910831966e-02  -5.9078781598235941e-05 -4.2342188110616663e-03 -2.0073614246875413e-02  3.3944362188828878e-06 -4.1814910646036313e-03 -1.9977678334479977e-02  5.7719986839044428e-05 -4.0361322969016625e-03 -1.9360005480154530e-02  2.7852303486710890e-05 -3.8786375705897515e-03 -1.8937521374314314e-02  -2.1523667