<?xml version="1.0"?>
<VTKFile type="UnstructuredGrid"  version="0.1"  >
<UnstructuredGrid>
<Piece  NumberOfPoints="760" NumberOfCells="3024">
<Points>
<DataArray  type="Float64"  NumberOfComponents="3"  format="ascii">0 0 0  0.05555555555555555 0 0  0.1111111111111111 0 0  0.1666666666666667 0 0  0.2222222222222222 0 0  0.2777777777777778 0 0  0.3333333333333333 0 0  0.3888888888888889 0 0  0.4444444444444444 0 0  0.5 0 0  0.5555555555555556 0 0  0.6111111111111112 0 0  0.6666666666666666 0 0  0.7222222222222222 0 0  0.7777777777777778 0 0  0.8333333333333334 0 0  0.8888888888888888 0 0  0.9444444444444444 0 0  1 0 0  0 0.01428571428571429 0  0.05555555555555555 0.01428571428571429 0  0.1111111111111111 0.01428571428571429 0  0.1666666666666667 0.01428571428571429 0  0.2222222222222222 0.01428571428571429 0  0.2777777777777778 0.01428571428571429 0  0.3333333333333333 0.01428571428571429 0  0.3888888888888889 0.01428571428571429 0  0.4444444444444444 0.01428571428571429 0  0.5 0.01428571428571429 0  0.5555555555555556 0.01428571428571429 0  0.6111111111111112 0.01428571428571429 0  0.6666666666666666 0.01428571428571429 0  0.7222222222222222 0.01428571428571429 0  0.7777777777777778 0.01428571428571429 0  0.8333333333333334 0.01428571428571429 0  0.8888888888888888 0.01428571428571429 0  0.9444444444444444 0.01428571428571429 0  1 0.01428571428571429 0  0 0.02857142857142857 0  0.05555555555555555 0.02857142857142857 0  0.1111111111111111 0.02857142857142857 0  0.1666666666666667 0.02857142857142857 0  0.2222222222222222 0.02857142857142857 0  0.2777777777777778 0.02857142857142857 0  0.3333333333333333 0.02857142857142857 0  0.3888888888888889 0.02857142857142857 0  0.4444444444444444 0.02857142857142857 0  0.5 0.02857142857142857 0  0.5555555555555556 0.02857142857142857 0  0.6111111111111112 0.02857142857142857 0  0.6666666666666666 0.02857142857142857 0  0.7222222222222222 0.02857142857142857 0  0.7777777777777778 0.02857142857142857 0  0.8333333333333334 0.02857142857142857 0  0.8888888888888888 0.02857142857142857 0  0.9444444444444444 0.02857142857142857 0  1 0.02857142857142857 0  0 0.04285714285714286 0  0.05555555555555555 0.04285714285714286 0  0.1111111111111111 0.04285714285714286 0  0.1666666666666667 0.04285714285714286 0  0.2222222222222222 0.04285714285714286 0  0.2777777777777778 0.04285714285714286 0  0.3333333333333333 0.04285714285714286 0  0.3888888888888889 0.04285714285714286 0  0.4444444444444444 0.04285714285714286 0  0.5 0.04285714285714286 0  0.5555555555555556 0.04285714285714286 0  0.6111111111111112 0.04285714285714286 0  0.6666666666666666 0.04285714285714286 0  0.7222222222222222 0.04285714285714286 0  0.7777777777777778 0.04285714285714286 0  0.8333333333333334 0.04285714285714286 0  0.8888888888888888 0.04285714285714286 0  0.9444444444444444 0.04285714285714286 0  1 0.04285714285714286 0  0 0.05714285714285715 0  0.05555555555555555 0.05714285714285715 0  0.1111111111111111 0.05714285714285715 0  0.1666666666666667 0.05714285714285715 0  0.2222222222222222 0.05714285714285715 0  0.2777777777777778 0.05714285714285715 0  0.3333333333333333 0.05714285714285715 0  0.3888888888888889 0.05714285714285715 0  0.4444444444444444 0.05714285714285715 0  0.5 0.05714285714285715 0  0.5555555555555556 0.05714285714285715 0  0.6111111111111112 0.05714285714285715 0  0.6666666666666666 0.05714285714285715 0  0.7222222222222222 0.05714285714285715 0  0.7777777777777778 0.05714285714285715 0  0.8333333333333334 0.05714285714285715 0  0.8888888888888888 0.05714285714285715 0  0.9444444444444444 0.05714285714285715 0  1 0.05714285714285715 0  0 0.07142857142857142 0  0.05555555555555555 0.07142857142857142 0  0.1111111111111111 0.07142857142857142 0  0.1666666666666667 0.07142857142857142 0  0.2222222222222222 0.07142857142857142 0  0.2777777777777778 0.07142857142857142 0  0.3333333333333333 0.07142857142857142 0  0.3888888888888889 0.07142857142857142 0  0.4444444444444444 0.07142857142857142 0  0.5 0.07142857142857142 0  0.5555555555555556 0.07142857142857142 0  0.6111111111111112 0.07142857142857142 0  0.6666666666666666 0.07142857142857142 0  0.7222222222222222 0.07142857142857142 0  0.7777777777777778 0.07142857142857142 0  0.8333333333333334 0.07142857142857142 0  0.8888888888888888 0.07142857142857142 0  0.9444444444444444 0.07142857142857142 0  1 0.07142857142857142 0  0 0.08571428571428573 0  0.05555555555555555 0.08571428571428573 0  0.1111111111111111 0.08571428571428573 0  0.1666666666666667 0.08571428571428573 0  0.2222222222222222 0.08571428571428573 0  0.2777777777777778 0.08571428571428573 0  0.3333333333333333 0.08571428571428573 0  0.3888888888888889 0.08571428571428573 0  0.4444444444444444 0.08571428571428573 0  0.5 0.08571428571428573 0  0.5555555555555556 0.08571428571428573 0  0.6111111111111112 0.08571428571428573 0  0.6666666666666666 0.08571428571428573 0  0.7222222222222222 0.08571428571428573 0  0.7777777777777778 0.08571428571428573 0  0.8333333333333334 0.08571428571428573 0  0.8888888888888888 0.08571428571428573 0  0.9444444444444444 0.08571428571428573 0  1 0.08571428571428573 0  0 0.1 0  0.05555555555555555 0.1 0  0.1111111111111111 0.1 0  0.1666666666666667 0.1 0  0.2222222222222222 0.1 0  0.2777777777777778 0.1 0  0.3333333333333333 0.1 0  0.3888888888888889 0.1 0  0.4444444444444444 0.1 0  0.5 0.1 0  0.5555555555555556 0.1 0  0.6111111111111112 0.1 0  0.6666666666666666 0.1 0  0.7222222222222222 0.1 0  0.7777777777777778 0.1 0  0.8333333333333334 0.1 0  0.8888888888888888 0.1 0  0.9444444444444444 0.1 0  1 0.1 0  0 0 0.01  0.05555555555555555 0 0.01  0.1111111111111111 0 0.01  0.1666666666666667 0 0.01  0.2222222222222222 0 0.01  0.2777777777777778 0 0.01  0.3333333333333333 0 0.01  0.3888888888888889 0 0.01  0.4444444444444444 0 0.01  0.5 0 0.01  0.5555555555555556 0 0.01  0.6111111111111112 0 0.01  0.6666666666666666 0 0.01  0.7222222222222222 0 0.01  0.7777777777777778 0 0.01  0.8333333333333334 0 0.01  0.8888888888888888 0 0.01  0.9444444444444444 0 0.01  1 0 0.01  0 0.01428571428571429 0.01  0.05555555555555555 0.01428571428571429 0.01  0.1111111111111111 0.01428571428571429 0.01  0.1666666666666667 0.01428571428571429 0.01  0.2222222222222222 0.01428571428571429 0.01  0.2777777777777778 0.01428571428571429 0.01  0.3333333333333333 0.01428571428571429 0.01  0.3888888888888889 0.01428571428571429 0.01  0.4444444444444444 0.01428571428571429 0.01  0.5 0.01428571428571429 0.01  0.5555555555555556 0.01428571428571429 0.01  0.6111111111111112 0.01428571428571429 0.01  0.6666666666666666 0.01428571428571429 0.01  0.7222222222222222 0.01428571428571429 0.01  0.7777777777777778 0.01428571428571429 0.01  0.8333333333333334 0.01428571428571429 0.01  0.8888888888888888 0.01428571428571429 0.01  0.9444444444444444 0.01428571428571429 0.01  1 0.01428571428571429 0.01  0 0.02857142857142857 0.01  0.05555555555555555 0.02857142857142857 0.01  0.1111111111111111 0.02857142857142857 0.01  0.1666666666666667 0.02857142857142857 0.01  0.2222222222222222 0.02857142857142857 0.01  0.2777777777777778 0.02857142857142857 0.01  0.3333333333333333 0.02857142857142857 0.01  0.3888888888888889 0.02857142857142857 0.01  0.4444444444444444 0.02857142857142857 0.01  0.5 0.02857142857142857 0.01  0.5555555555555556 0.02857142857142857 0.01  0.6111111111111112 0.02857142857142857 0.01  0.6666666666666666 0.02857142857142857 0.01  0.7222222222222222 0.02857142857142857 0.01  0.7777777777777778 0.02857142857142857 0.01  0.8333333333333334 0.02857142857142857 0.01  0.8888888888888888 0.02857142857142857 0.01  0.9444444444444444 0.02857142857142857 0.01  1 0.02857142857142857 0.01  0 0.04285714285714286 0.01  0.05555555555555555 0.04285714285714286 0.01  0.1111111111111111 0.04285714285714286 0.01  0.1666666666666667 0.04285714285714286 0.01  0.2222222222222222 0.04285714285714286 0.01  0.2777777777777778 0.04285714285714286 0.01  0.3333333333333333 0.04285714285714286 0.01  0.3888888888888889 0.04285714285714286 0.01  0.4444444444444444 0.04285714285714286 0.01  0.5 0.04285714285714286 0.01  0.5555555555555556 0.04285714285714286 0.01  0.6111111111111112 0.04285714285714286 0.01  0.6666666666666666 0.04285714285714286 0.01  0.7222222222222222 0.04285714285714286 0.01  0.7777777777777778 0.04285714285714286 0.01  0.8333333333333334 0.04285714285714286 0.01  0.8888888888888888 0.04285714285714286 0.01  0.9444444444444444 0.04285714285714286 0.01  1 0.04285714285714286 0.01  0 0.05714285714285715 0.01  0.05555555555555555 0.05714285714285715 0.01  0.1111111111111111 0.05714285714285715 0.01  0.1666666666666667 0.05714285714285715 0.01  0.2222222222222222 0.05714285714285715 0.01  0.2777777777777778 0.05714285714285715 0.01  0.3333333333333333 0.05714285714285715 0.01  0.3888888888888889 0.05714285714285715 0.01  0.4444444444444444 0.05714285714285715 0.01  0.5 0.05714285714285715 0.01  0.5555555555555556 0.05714285714285715 0.01  0.6111111111111112 0.05714285714285715 0.01  0.6666666666666666 0.05714285714285715 0.01  0.7222222222222222 0.05714285714285715 0.01  0.7777777777777778 0.05714285714285715 0.01  0.8333333333333334 0.05714285714285715 0.01  0.8888888888888888 0.05714285714285715 0.01  0.9444444444444444 0.05714285714285715 0.01  1 0.05714285714285715 0.01  0 0.07142857142857142 0.01  0.05555555555555555 0.07142857142857142 0.01  0.1111111111111111 0.07142857142857142 0.01  0.1666666666666667 0.07142857142857142 0.01  0.2222222222222222 0.07142857142857142 0.01  0.2777777777777778 0.07142857142857142 0.01  0.3333333333333333 0.07142857142857142 0.01  0.3888888888888889 0.07142857142857142 0.01  0.4444444444444444 0.07142857142857142 0.01  0.5 0.07142857142857142 0.01  0.5555555555555556 0.07142857142857142 0.01  0.6111111111111112 0.07142857142857142 0.01  0.6666666666666666 0.07142857142857142 0.01  0.7222222222222222 0.07142857142857142 0.01  0.7777777777777778 0.07142857142857142 0.01  0.8333333333333334 0.07142857142857142 0.01  0.8888888888888888 0.07142857142857142 0.01  
[...]
<PointData  Vectors="f_36"> 
<DataArray  type="Float64"  Name="f_36"  NumberOfComponents="3" format="ascii">0.0000000000000000e+00 0.0000000000000000e+00 0.0000000000000000e+00  -6.1230549527576208e-04 1.3253488745899582e-03 -3.3890023881560241e-03  -3.7225659720156864e-04 2.1115866431202415e-03 -6.1985296807465836e-03  3.4902824192630205e-04 1.8970969452616784e-03 -6.4612291238950554e-03  1.2094192837535105e-03 4.2943555568725287e-04 -2.7850906394126856e-03  1.7400311106745277e-03 -1.9460066330327648e-03 4.2732285322605954e-03  1.6290651816155293e-03 -4.3593839267485699e-03 1.2177433067843000e-02  8.3795105735115212e-04 -5.8458881863217085e-03 1.7792331657434771e-02  -5.6501623410488101e-05 -6.0012171960233084e-03 1.8633592261385397e-02  -5.2668242585459903e-05 -5.7113126745967618e-03 1.6731095145197133e-02  6.4762433510696677e-04 -6.2682678024203586e-03 1.7879258105620827e-02  9.0820202853833455e-04 -7.5247042354338357e-03 2.2294999491439697e-02  6.8419043562437402e-04 -8.5843770903334914e-03 2.5834726464731627e-02  5.5551797392066162e-04 -9.3395683389723549e-03 2.8126597271318002e-02  5.1366642617272913e-04 -9.9959506253189875e-03 3.0334402648730673e-02  4.0941373160301929e-04 -1.0529748704282119e-02 3.2195424071841054e-02  2.4216655096484559e-04 -1.0927840840968293e-02 3.3702909176550125e-02  -2.3237962446986490e-04 -1.1238604911863251e-02 3.4998706072077196e-02  -9.0673991354886432e-04 -1.1929191670641369e-02 3.4984556539281349e-02  0.0000000000000000e+00 0.0000000000000000e+00 0.0000000000000000e+00  -6.0690384205333071e-04 1.1483213144469978e-03 -2.1996518287690516e-03  -3.9830034204541427e-04 1.9241051578822630e-03 -4.2763704803607250e-03  2.7012216284788120e-04 1.8298960858569833e-03 -4.6912201460271776e-03  1.0999242713546696e-03 5.7740779955606138e-04 -2.3204501954670314e-03  1.6492508519617461e-03 -1.5725664499018353e-03 2.5816601320930491e-03  1.5960149635605740e-03 -3.8447698338051847e-03 8.2663803489805600e-03  8.9141313605787522e-04 -5.3258872469765014e-03 1.2486715443400275e-02  9.7405304155532422e-06 -5.5561515907473795e-03 1.3207673526296331e-02  -1.0124547368296064e-04 -5.2667833796190200e-03 1.1637246061873829e-02  5.5850129049993854e-04 -5.7027008306467881e-03 1.2276068423483791e-02  8.9651725953944863e-04 -6.8431430900427479e-03 1.5531599255442428e-02  6.9143826797632185e-04 -7.8517827040195474e-03 1.8140453449580242e-02  5.3769921740681541e-04 -8.5690157717337803e-03 1.9761515824377643e-02  5.0115761008208122e-04 -9.1859296922052729e-03 2.1371255387990711e-02  4.0716329965772929e-04 -9.6933445474403808e-03 2.2757855798562342e-02  2.7903010638053908e-04 -1.0078660984775601e-02 2.3909412407837734e-02  -2.4525724691792337e-05 -1.0409271660458666e-02 2.5044577526323823e-02  -9.5102881340211414e-04 -1.1385794228891353e-02 2.5633901826793586e-02  0.0000000000000000e+00 0.0000000000000000e+00 0.0000000000000000e+00  -3.7055316089532579e-04 7.2558438373139121e-04 -9.6066064026847941e-04  -2.5181313081452966e-04 1.2878285047309738e-03 -1.9806810648399960e-03  1.5716067345339436e-04 1.3125022709775786e-03 -2.2493694139522841e-03  6.7646770069159821e-04 5.4759078382995475e-04 -1.1646542053527886e-03  1.0350783398388797e-03 -8.7992746141568330e-04 1.2170238809253141e-03  1.0235837325541636e-03 -2.4630485679131061e-03 4.0720969922651302e-03  6.0823931118395068e-04 -3.5569820208517225e-03 6.3090385190317493e-03  5.8193541298748768e-05 -3.7619464448845601e-03 6.8189057611500433e-03  -4.9552909199638296e-05 -3.5123000711991350e-03 6.0499452060707604e-03  3.5271282941249347e-04 -3.7388857003148044e-03 6.3570147295922870e-03  5.9602837734492491e-04 -4.5148807786747711e-03 8.0869872178149262e-03  4.7612717328755311e-04 -5.2253211721661934e-03 9.5057642578536515e-03  3.6917078862346660e-04 -5.7186898312372222e-03 1.0393226860656263e-02  3.4753222745536705e-04 -6.1429661395209145e-03 1.1297041501466097e-02  2.9354814185859673e-04 -6.4991525950493850e-03 1.2104486201261391e-02  2.2626990260198734e-04 -6.7827655469662861e-03 1.2800094578418204e-02  1.4303097416089634e-04 -7.0153692213484825e-03 1.3543003793593893e-02  -1.1287339819807502e-03 -8.3017371214363003e-03 1.4358545839914021e-02  0.0000000000000000e+00 0.0000000000000000e+00 0.0000000000000000e+00  1.2625128086035913e-05 -1.0527799479403833e-06 1.8422521387419313e-05  2.4323084079571753e-05 -3.3658809284760144e-06 7.0208066474244582e-05  3.5067550176708968e-05 -6.9482895346487539e-06 1.5368873014852744e-04  4.4789772695933545e-05 -1.1669668458244032e-05 2.6603686053738754e-04  5.3464894551827417e-05 -1.7422134110828651e-05 4.0432374567029927e-04  6.1091180636786103e-05 -2.4094447756397694e-05 5.6557005152447072e-04  6.7696939848133005e-05 -3.1574671880253480e-05 7.4682919099529246e-04  7.3337801924879968e-05 -3.9753134584902993e-05 9.4528153488176103e-04  7.8080605527189857e-05 -4.8525875786862140e-05 1.1583019943774218e-03  8.1984187949251506e-05 -5.7796064468416574e-05 1.3834576078161887e-03  8.5100679429277971e-05 -6.7472571059548736e-05 1.6184549300461799e-03  8.7493476470564064e-05 -7.7469032004783806e-05 1.8611444255612663e-03  8.9242565221222376e-05 -8.7706229708546350e-05 2.1095846571731981e-03  9.0437625418712168e-05 -9.8115064913926033e-05 2.3620801956833054e-03  9.1175658951959899e-05 -1.0863763522448033e-04 2.6171974971079025e-03  9.1561693742818983e-05 -1.1922794141216757e-04 2.8737882968849905e-03  9.1708040330451784e-05 -1.2985283123903433e-04 3.1310117113085719e-03  9.1734855764626615e-05 -1.4049390389332526e-04 3.3883563635509440e-03  0.0000000000000000e+00 0.0000000000000000e+00 0.0000000000000000e+00  1.1893463210989393e-05 -1.7476480846726208e-06 1.8228729338774727e-05  2.4014129061526197e-05 -4.0119528416477373e-06 6.9930100540574363e-05  3.5164876773326018e-05 -7.5386565051208170e-06 1.5337908112910328e-04  4.5266231459808070e-05 -1.2198664378587687e-05 2.6569992987744039e-04  5.4293449660406508e-05 -1.7888321579764813e-05 4.0396223708870176e-04  6.2241706996386581e-05 -2.4498701371965614e-05 5.6518571165882438e-04  6.9136400170362379e-05 -3.1920191218736103e-05 7.4642392015283735e-04  7.5032055824482118e-05 -4.0044499101882637e-05 9.4485804599306507e-04  7.9997382313552019e-05 -4.8767208148443789e-05 1.1578637326123090e-03  8.4094561811896224e-05 -5.7990136427191618e-05 1.3830078811597048e-03  8.7376790326762556e-05 -6.7622324422325048e-05 1.6179962069934680e-03  8.9906866865898524e-05 -7.7578893218901602e-05 1.8606787437759633e-03  9.1765739384122531e-05 -8.7781485217459194e-05 2.1091140893497924e-03  9.3045239326755273e-05 -9.8161298378877593e-05 2.3616064845160102e-03  9.3844510715296881e-05 -1.0866086219849741e-04 2.6167216626168579e-03  9.4270978116701596e-05 -1.1923462909345547e-04 2.8733104079199990e-03  9.4439693008376943e-05 -1.2984979560234420e-04 3.1305306412477379e-03  9.4473461622584086e-05 -1.4048737367305066e-04 3.3878696672933963e-03  0.0000000000000000e+00 0.0000000000000000e+00 0.0000000000000000e+00  -3.9131277872828986e-04 -7.8412921422086051e-04 -1.3104886076669075e-03  -2.0676162075045600e-04 -1.3892339058018486e-03 -2.3183833562523486e-03  2.3860436066164094e-04 -1.4493738209810053e-03 -2.3169202140956129e-03  7.4672947885378411e-04 -6.8285919653454067e-04 -8.2270460581916692e-04  1.0418201097407564e-03 8.0154380732214278e-04 1.9087331267574989e-03  9.5100395419186405e-04 2.4733810850079392e-03 4.8546655758646426e-03  4.9739743483056577e-04 3.6750313298627674e-03 6.8721965649023355e-03  8.4251732067790364e-06 3.9960155193741959e-03 7.1427851776535789e-03  9.6448153078392903e-06 3.7655514979675450e-03 6.4483934449280113e-03  4.0025049434328310e-04 3.9025210651194363e-03 7.0144898023567588e-03  5.6194268961209774e-04 4.6261037022167226e-03 8.8017706036285556e-03  4.6072639343916629e-04 5.3733588662278299e-03 1.0164535847630302e-02  4.1052944173488085e-04 5.9498680011775447e-03 1.1156140392110809e-02  4.1680734834390786e-04 6.4988128307793790e-03 1.2251928217741239e-02  3.9214004893539564e-04 7.0364459008570466e-03 1.3327980187891707e-02  3.1412691553187023e-04 7.5375771902158554e-03 1.4340777102834325e-02  8.5883736518825438e-05 8.1027883483142816e-03 1.5235791409335843e-02  -7.6762879103719486e-04 9.3757315446691639e-03 1.5314267633311172e-02  0.0000000000000000e+00 0.0000000000000000e+00 0.0000000000000000e+00  -6.3566742998508695e-04 -1.0107390822298172e-03 -2.5472456225429118e-03  -3.7283001373434276e-04 -1.8821201664572238e-03 -4.5666537161924816e-03  3.2681339265923349e-04 -2.0349180143926083e-03 -4.6850530063138910e-03  1.1448667314318962e-03 -1.0619463031815940e-03 -1.9506808831621007e-03  1.6382588103086744e-03 9.3585557953015258e-04 3.1978165318142784e-03  1.5125463094456245e-03 3.2660290983182040e-03 8.8207412452393011e-03  7.9623676041844530e-04 5.0240521312575380e-03 1.2709038221971853e-02  -1.5283592904324137e-05 5.6003381330569221e-03 1.3291108840779825e-02  -6.9207523136252243e-05 5.3483743488662991e-03 1.1908512203838385e-02  5.6557467082457287e-04 5.4910864980795065e-03 1.2698893110066061e-02  8.6564046238920818e-04 6.4395146928189206e-03 1.5855700561099070e-02  6.9236493200074004e-04 7.4910186290241126e-03 1.8361578838141587e-02  5.9529338109916969e-04 8.3235120873000161e-03 2.0136297076024136e-02  6.1004219286052983e-04 9.1041049474397361e-03 2.2064785410459937e-02  5.7199969901340045e-04 9.8710268712999504e-03 2.3964300394456090e-02  4.2885781395710077e-04 1.0597660988504809e-02 2.5737235536821761e-02  6.2257663744157751e-05 1.1459040190670145e-02 2.7285811939140987e-02  -5.6206184197751829e-04 1.3429091729379294e-02 2.7479576014319752e-02  0.0000000000000000e+00 0.0000000000000000e+00 0.0000000000000000e+00  -6.7158829834153310e-04 -9.9190959568585136e-04 -3.4443188239443425e-03  -4.4958629066736824e-04 -1.9549307645960710e-03 -6.2301291106675117e-03  2.4688172412830908e-04 -2.1876985728939528e-03 -6.4793966410674085e-03  1.1079204577442978e-03 -1.2411297516881485e-03 -2.8796992563255804e-03  1.6770606076304262e-03 8.2168103147480399e-04 4.0469703498851092e-03  1.6108537988045284e-03 3.3014550935896413e-03 1.1735208831908742e-02  9.0933096270120648e-04 5.2405405758226111e-03 1.7184019377835230e-02  2.0209299503548565e-05 5.9474426549392971e-03 1.8284711881957388e-02  -1.5312621471562160e-04 5.7189432732260483e-03 1.6642491868939329e-02  5.1650761040026292e-04 5.8342288003932286e-03 1.7549108428739479e-02  9.1938004875555582e-04 6.8017078483267168e-03 2.1607151001086553e-02  7.2908758452006376e-04 7.9194419725563472e-03 2.5063067338877504e-02  5.9639589983841819e-04 8.8193130466671776e-03 2.7554852446821664e-02  6.1998595230092419e-04 9.6592267066158543e-03 3.0176587942522981e-02  5.8259099077673585e-04 1.0488113797962799e-02 3.2767270437373867e-02  4.1095500652636946e-04 1.1288865501665430e-02 3.5192628245031977e-02  -8.9861545782605741e-05 1.2211820129881373e-02 3.7380509799608337e-02  -6.1412669312964330e-04 1.4441155654136336e-02 3.8432401863678751e-02  0.0000000000000000e+00 0.0000000000000000e+00 0.0000000000000000e+00  -2.4476154338289160e-04 5.3336775647849527e-04 -3.2886824222608550e-03  -1.8697133259688671e-04 9.2233009188903952e-04 -6.1350516336036469e-03  1.0330660170728373e-04 8.8050852297862753e-04 -6.4672127339331321e-03  4.8026240473530833e-04 2.8241373995526586e-04 -2.8826960786348661e-03  7.4100626645611737e-04 -7.4500149246817921e-04 4.1005950119019051e-03  7.3855659190542899e-04 -1.8296729546941415e-03 1.1977928502392024e-02  4.3521968917188686e-04 -2.5341125982369047e-03 1.7623333741211240e-02  3.1155667852773026e-05 -2.6327129458801955e-03 1.8502493101537246e-02  -3.4176562543930247e-05 -2.4752774614647450e-03 1.6564278835859626e-02  2.4410752386057669e-04 -2.6797677803125086e-03 1.7635658625966097e-02  3.8487269599862556e-04 -3.2395439275050260e-03 2.2023890514091374e-02  3.0062383664410217e-04 -3.7271365296727946e-03 2.5563175020797264e-02  2.4459482580036586e-04 -4.0635524999373543e-03 2.7836203476389116e-02  2.3378943615724883e-04 -4.3561092826570674e-03 3.0027075971824496e-02  1.7523593478184970e-04 -4.5993587105036199e-03 3.1882032031316197e-02  4.2174038482857979e-05 -4.7867326080495501e-03 3.3384826167876996e-02  -3.2306695695907253e-04 -5.0359644913059989e-03 3.4676738958820161e-02  -8.7211230877503687e-04 -5.7504429652034611e-03 3.4663618321129602e-02  0.0000000000000000e+00 0.0000000000000000e+00 0.0000000000000000e+00  -2.7254329402173327e-04 4.6768606613864191e-04 -2.1269588840769887e-03  -2.0672920280478168e-04 8.0698928663560656e-04 -4.2250463315915247e-03  9.5478637061320685e-05 7.8462895349278852e-04 -4.6859241831857974e-03  4.8958864250929870e-04 2.7324804876060821e-04 -2.3815227492235587e-03  7.6973068846482296e-04 -6.2613705559181644e-04 2.4616824447425993e-03  7.7592076101825865e-04 -1.5929484625272772e-03 8.1172646166775067e-03  4.7222690768163804e-04 -2.2401492451406615e-03 1.2348571863492858e-02  4.9954673957288106e-05 -2.3593762033821504e-03 1.3088686085158074e-02  -4.9606018458137016e-05 -2.2371306897903433e-03 1.1481214841664915e-02  2.3533104904078554e-04 -2.4073792124382157e-03 1.2054060027979062e-02  4.1306679233239264e-04 -2.8915832163666703e-03 1.5290953854020508e-02  3.3003656675316515e-04 -3.3320868647225572e-03 1.7900640670405497e-02  2.5658845883753581e-04 -3.6430082113232307e-03 1.9499391733416520e-02  2.4342749228209828e-04 -3.9084024734448745e-03 2.1088973871975437e-02  1.8986937820636391e-04 -4.1280791408064028e-03 2.2468014966587905e-02  8.9545338226262302e-05 -4.2921467961288600e-03 2.3612715325095169e-02  -1.4160896967337793e-04 -4.4892719112441595e-03 2.4751134496029881e-02  -8.1901651779817271e-04 -5.2449810760053688e-03 2.5418989865642311e-02  0.0000000000000000e+00 0.0000000000000000e+00 0.0000000000000000e+00  -1.8024647930855821e-04 2.8665030948003340e-04 -8.7378611249316527e-04  -1.3590000738556907e-04 4.9817088845854104e-04 -1.8726851939904546e-03  6.2932028596283300e-05 4.9716802302548265e-04 -2.1701225362517969e-03  3.2332033505229135e-04 1.9108388109189721e-04 -1.1744881077373596e-03  5.1250798633879747e-04 -3.6623526820757379e-04 1.0838015123292154e-03  5.2213284779791544e-04 -9.7940761150014811e-04 3.8237338350270516e-03  3.2962647921881341e-04 -1.4040736518796389e-03 5.9948574917111684e-03  5.4519737899670468e-05 -1.4977696125293882e-03 6.4875422028807970e-03  -2.3187436400865552e-05 -1.4258631626778791e-03 5.6900757485929300e-03  1.5970197941585996e-04 -1.5258273734211467e-03 5.9354651036377980e-03  2.9010064408902170e-04 -1.8273550690696661e-03 7.6127301406213738e-03  2.4009664494068801e-04 -2.1106908433981475e-03 8.9890106591331079e-03  1.8544801072434850e-04 -2.3142525987023747e-03 9.8245316637482292e-03  1.7567170887011982e-04 -2.4871581241798385e-03 1.0683686147162825e-02  1.4464198478373000e-04 -2.6312620441058606e-03 1.1461728506904524e-02  9.3416919821422671e-05 -2.7423918434486051e-03 1.2135656973201113e-02  2.0295993455826574e-05 -2.8436649185295594e-03 1.2866026825481745e-02  -7.8867437279257324e-04 -3.4946925762775862e-03 1.3698190799849342e-02  0.0000000000000000e+00 0.0000000000000000e+00 0.0000000000000000e+00  5.9454838897387766e-06 -9.8329868392559712e-07 1.7895640050641597e-05  1.1797472331828745e-05 -3.2774085455803003e-06 6.9714504273392077e-05  1.7129801654498583e-05 -6.8264271898366592e-06 1.5323577876100774e-04  2.1957171768294521e-05 -1.1518570963472369e-05 2.6562785256233111e-04  2.6268966122749283e-05 -1.7243139822168479e-05 4.0395946083240605e-04  3.0063570142811214e-05 -2.3888948001526085e-05 5.6525028396361217e-04  3.3353719448585854e-05 -3.1344687839297181e-05 7.4655258074577226e-04  3.6165868615416109e-05 -3.9501572139555554e-05 9.4504574910174151e-04  3.8532924487557014e-05 -4.8255964435756101e-05 1.1581043234392512e-03  4.0484645773386101e-05 -5.7510451699599907e-05 1.3832955592583528e-03  4.2046956524750726e-05 -6.7173341928446008e-05 1.6183260991489597e-03  4.3250457988712216e-05 -7.7158402689270583e-05 1.8610459212443679e-03  4.4134009743828331e-05 -8.7386603952224705e-05 2.1095129803433560e-03  4.4741537671127555e-05 -9.7788614809887902e-05 2.3620314484854173e-03  4.5120538395581564e-05 -1.0830609889672023e-04 2.6171674391246235e-03  4.5322467139419538e-05 -1.1889246676613226e-04 2.8737723303139495e-03  4.5402273761614903e-05 -1.2951390885273810e-04 3.1310048668668029e-03  4.5417739492328242e-05 -1.4015077093065530e-04 3.3883512704242589e-03  0.0000000000000000e+00 0.0000000000000000e+00 0.0000000000000000e+00  6.0236101302307423e-06 -1.4853875216445554e-06 1.7602231702239503e-05  1.2280757221757515e-05 -3.7007023383666511e-06 6.9391435195162920e-05  1.7944945129139447e-05 -7.2097041976750908e-06 1.5288594979524344e-04  2.3077097928759638e-05 -1.1862530696473160e-05 2.6525351948146383e-04  2.7665667548889820e-05 -1.7547347591268990e-05 4.0356306980907010e-04  3.1708120753128981e-05 -2.4153852740832198e-05 5.6483386167310531e-04  3.5216672722368584e-05 -3.1571990424090119e-05 7.4611832182469270e-04  3.8218184980882736e-05 -3.9693851224303996e-05 9.4459647271826787e-04  4.0747065379422404e-05 -4.8415793802951692e-05 1.1576432933590275e-03  4.2835087405601785e-05 -5.7639830545046862e-05 1.3828257931836928e-03  4.4509600570531596e-05 -6.7274251741558202e-05 1.6178499864440575e-03  4.5802274617831513e-05 -7.7233532533303422e-05 1.8605655529305037e-03  4.6753779293335853e-05 -8.7439222358445581e-05 2.1090303686073322e-03  4.7410556006362711e-05 -9.7822265159557939e-05 2.3615482020175036e-03  4.7822826435761924e-05 -1.0832460260791150e-04 2.6166844541023015e-03  4.8044987965367844e-05 -1.1889992996456105e-04 2.8732895475981749e-03  4.8135246614361513e-05 -1.2951456167224147e-04 3.1305211100139353e-03  4.8154704570844783e-05 -1.4014832420978111e-04 3.3878653842201313e-03  0.0000000000000000e+00 0.0000000000000000e+00 0.0000000000000000e+00  -2.0103868584690239e-04 -2.8006526780299069e-04 -1.1801883757777123e-03  -1.3029820797173385e-04 -4.8993733097416981e-04 -2.0847177641892707e-03  8.5478130499866092e-05 -5.1793811123033605e-04 -2.0600296820711024e-03  3.5025308363026696e-04 -2.5748104809374247e-04 -6.8187506452479108e-04  5.2368072773671139e-04 2.5736430048176750e-04 1.8014209746902931e-03  5.0542645578531575e-04 8.4242452400185204e-04 4.4449375287785916e-03  2.9476463091805330e-04 1.2678594241268379e-03 6.2186708922655235e-03  3.3752328940140966e-05 1.3873307182428649e-03 6.3796100796043656e-03  -8.8506043378511364e-06 1.3063670561301605e-03 5.6720770014968341e-03  1.7815946905719315e-04 1.3421614621925751e-03 6.2083131346934431e-03  2.8638721853292340e-04 1.5815901921132553e-03 7.8946137115846193e-03  2.4258516068813424e-04 1.8368879783364196e-03 9.1205665979743819e-03  2.0976692055976094e-04 2.0369201829944349e-03 9.9826852153634873e-03  2.1333582563604894e-04 2.2258908008066119e-03 1.0963766430873226e-02  1.9754424514688710e-04 2.4075622271455739e-03 1.1932857208374873e-02  1.4255745466047493e-04 2.5738951854292207e-03 1.2841997458353368e-02  2.9336169915512526e-05 2.8025493283156009e-03 1.3612750819874338e-02  -5.9793170895680245e-04 3.3403610249347310e-03 1.3243500183595526e-02  0.0000000000000000e+00 0.0000000000000000e+00 0.0000000000000000e+00  -2.9672437063547023e-04 -4.4518087234151526e-04 -2.4706806871762389e-03  -2.1567163967099276e-04 -8.4279223729550299e-04 -4.4773801115923712e-03  1.0156171972360745e-04 -9.2910853309283821e-04 -4.5979981668311434e-03  4.9913816496383891e-04 -5.1179827265864549e-04 -1.9133634922201799e-03  7.6697086218514192e-04 3.7397114238491410e-04 3.1437444117563026e-03  7.4729589481771941e-04 1.4224344431842198e-03 8.6575272901026831e-03  4.3403823613131012e-04 2.2268148886864536e-03 1.2454140604713251e-02  3.1566175449778569e-05 2.5032422183445158e-03 1.2978731360566714e-02  -4.9737250111539960e-05 2.3922681072513440e-03 1.1548597754422940e-02  2.3660008834950117e-04 2.4392775421083739e-03 1.2297602869192483e-02  4.1229460780375221e-04 2.8457289317266360e-03 1.5429404323227392e-02  3.3930801778662642e-04 3.3101481423244909e-03 1.7894080103319991e-02  2.8240442902451160e-04 3.6845347796751558e-03 1.9604097669737912e-02  2.9055482867769758e-04 