<?xml version="1.0"?>
<VTKFile type="UnstructuredGrid"  version="0.1"  >
<UnstructuredGrid>
<Piece  NumberOfPoints="760" NumberOfCells="3024">
<Points>
<DataArray  type="Float64"  NumberOfComponents="3"  format="ascii">0 0 0  0.05555555555555555 0 0  0.1111111111111111 0 0  0.1666666666666667 0 0  0.2222222222222222 0 0  0.2777777777777778 0 0  0.3333333333333333 0 0  0.3888888888888889 0 0  0.4444444444444444 0 0  0.5 0 0  0.5555555555555556 0 0  0.6111111111111112 0 0  0.6666666666666666 0 0  0.7222222222222222 0 0  0.7777777777777778 0 0  0.8333333333333334 0 0  0.8888888888888888 0 0  0.9444444444444444 0 0  1 0 0  0 0.01428571428571429 0  0.05555555555555555 0.01428571428571429 0  0.1111111111111111 0.01428571428571429 0  0.1666666666666667 0.01428571428571429 0  0.2222222222222222 0.01428571428571429 0  0.2777777777777778 0.01428571428571429 0  0.3333333333333333 0.01428571428571429 0  0.3888888888888889 0.01428571428571429 0  0.4444444444444444 0.01428571428571429 0  0.5 0.01428571428571429 0  0.5555555555555556 0.01428571428571429 0  0.6111111111111112 0.01428571428571429 0  0.6666666666666666 0.01428571428571429 0  0.7222222222222222 0.01428571428571429 0  0.7777777777777778 0.01428571428571429 0  0.8333333333333334 0.01428571428571429 0  0.8888888888888888 0.01428571428571429 0  0.9444444444444444 0.01428571428571429 0  1 0.01428571428571429 0  0 0.02857142857142857 0  0.05555555555555555 0.02857142857142857 0  0.1111111111111111 0.02857142857142857 0  0.1666666666666667 0.02857142857142857 0  0.2222222222222222 0.02857142857142857 0  0.2777777777777778 0.02857142857142857 0  0.3333333333333333 0.02857142857142857 0  0.3888888888888889 0.02857142857142857 0  0.4444444444444444 0.02857142857142857 0  0.5 0.02857142857142857 0  0.5555555555555556 0.02857142857142857 0  0.6111111111111112 0.02857142857142857 0  0.6666666666666666 0.02857142857142857 0  0.7222222222222222 0.02857142857142857 0  0.7777777777777778 0.02857142857142857 0  0.8333333333333334 0.02857142857142857 0  0.8888888888888888 0.02857142857142857 0  0.9444444444444444 0.02857142857142857 0  1 0.02857142857142857 0  0 0.04285714285714286 0  0.05555555555555555 0.04285714285714286 0  0.1111111111111111 0.04285714285714286 0  0.1666666666666667 0.04285714285714286 0  0.2222222222222222 0.04285714285714286 0  0.2777777777777778 0.04285714285714286 0  0.3333333333333333 0.04285714285714286 0  0.3888888888888889 0.04285714285714286 0  0.4444444444444444 0.04285714285714286 0  0.5 0.04285714285714286 0  0.5555555555555556 0.04285714285714286 0  0.6111111111111112 0.04285714285714286 0  0.6666666666666666 0.04285714285714286 0  0.7222222222222222 0.04285714285714286 0  0.7777777777777778 0.04285714285714286 0  0.8333333333333334 0.04285714285714286 0  0.8888888888888888 0.04285714285714286 0  0.9444444444444444 0.04285714285714286 0  1 0.04285714285714286 0  0 0.05714285714285715 0  0.05555555555555555 0.05714285714285715 0  0.1111111111111111 0.05714285714285715 0  0.1666666666666667 0.05714285714285715 0  0.2222222222222222 0.05714285714285715 0  0.2777777777777778 0.05714285714285715 0  0.3333333333333333 0.05714285714285715 0  0.3888888888888889 0.05714285714285715 0  0.4444444444444444 0.05714285714285715 0  0.5 0.05714285714285715 0  0.5555555555555556 0.05714285714285715 0  0.6111111111111112 0.05714285714285715 0  0.6666666666666666 0.05714285714285715 0  0.7222222222222222 0.05714285714285715 0  0.7777777777777778 0.05714285714285715 0  0.8333333333333334 0.05714285714285715 0  0.8888888888888888 0.05714285714285715 0  0.9444444444444444 0.05714285714285715 0  1 0.05714285714285715 0  0 0.07142857142857142 0  0.05555555555555555 0.07142857142857142 0  0.1111111111111111 0.07142857142857142 0  0.1666666666666667 0.07142857142857142 0  0.2222222222222222 0.07142857142857142 0  0.2777777777777778 0.07142857142857142 0  0.3333333333333333 0.07142857142857142 0  0.3888888888888889 0.07142857142857142 0  0.4444444444444444 0.07142857142857142 0  0.5 0.07142857142857142 0  0.5555555555555556 0.07142857142857142 0  0.6111111111111112 0.07142857142857142 0  0.6666666666666666 0.07142857142857142 0  0.7222222222222222 0.07142857142857142 0  0.7777777777777778 0.07142857142857142 0  0.8333333333333334 0.07142857142857142 0  0.8888888888888888 0.07142857142857142 0  0.9444444444444444 0.07142857142857142 0  1 0.07142857142857142 0  0 0.08571428571428573 0  0.05555555555555555 0.08571428571428573 0  0.1111111111111111 0.08571428571428573 0  0.1666666666666667 0.08571428571428573 0  0.2222222222222222 0.08571428571428573 0  0.2777777777777778 0.08571428571428573 0  0.3333333333333333 0.08571428571428573 0  0.3888888888888889 0.08571428571428573 0  0.4444444444444444 0.08571428571428573 0  0.5 0.08571428571428573 0  0.5555555555555556 0.08571428571428573 0  0.6111111111111112 0.08571428571428573 0  0.6666666666666666 0.08571428571428573 0  0.7222222222222222 0.08571428571428573 0  0.7777777777777778 0.08571428571428573 0  0.8333333333333334 0.08571428571428573 0  0.8888888888888888 0.08571428571428573 0  0.9444444444444444 0.08571428571428573 0  1 0.08571428571428573 0  0 0.1 0  0.05555555555555555 0.1 0  0.1111111111111111 0.1 0  0.1666666666666667 0.1 0  0.2222222222222222 0.1 0  0.2777777777777778 0.1 0  0.3333333333333333 0.1 0  0.3888888888888889 0.1 0  0.4444444444444444 0.1 0  0.5 0.1 0  0.5555555555555556 0.1 0  0.6111111111111112 0.1 0  0.6666666666666666 0.1 0  0.7222222222222222 0.1 0  0.7777777777777778 0.1 0  0.8333333333333334 0.1 0  0.8888888888888888 0.1 0  0.9444444444444444 0.1 0  1 0.1 0  0 0 0.01  0.05555555555555555 0 0.01  0.1111111111111111 0 0.01  0.1666666666666667 0 0.01  0.2222222222222222 0 0.01  0.2777777777777778 0 0.01  0.3333333333333333 0 0.01  0.3888888888888889 0 0.01  0.4444444444444444 0 0.01  0.5 0 0.01  0.5555555555555556 0 0.01  0.6111111111111112 0 0.01  0.6666666666666666 0 0.01  0.7222222222222222 0 0.01  0.7777777777777778 0 0.01  0.8333333333333334 0 0.01  0.8888888888888888 0 0.01  0.9444444444444444 0 0.01  1 0 0.01  0 0.01428571428571429 0.01  0.05555555555555555 0.01428571428571429 0.01  0.1111111111111111 0.01428571428571429 0.01  0.1666666666666667 0.01428571428571429 0.01  0.2222222222222222 0.01428571428571429 0.01  0.2777777777777778 0.01428571428571429 0.01  0.3333333333333333 0.01428571428571429 0.01  0.3888888888888889 0.01428571428571429 0.01  0.4444444444444444 0.01428571428571429 0.01  0.5 0.01428571428571429 0.01  0.5555555555555556 0.01428571428571429 0.01  0.6111111111111112 0.01428571428571429 0.01  0.6666666666666666 0.01428571428571429 0.01  0.7222222222222222 0.01428571428571429 0.01  0.7777777777777778 0.01428571428571429 0.01  0.8333333333333334 0.01428571428571429 0.01  0.8888888888888888 0.01428571428571429 0.01  0.9444444444444444 0.01428571428571429 0.01  1 0.01428571428571429 0.01  0 0.02857142857142857 0.01  0.05555555555555555 0.02857142857142857 0.01  0.1111111111111111 0.02857142857142857 0.01  0.1666666666666667 0.02857142857142857 0.01  0.2222222222222222 0.02857142857142857 0.01  0.2777777777777778 0.02857142857142857 0.01  0.3333333333333333 0.02857142857142857 0.01  0.3888888888888889 0.02857142857142857 0.01  0.4444444444444444 0.02857142857142857 0.01  0.5 0.02857142857142857 0.01  0.5555555555555556 0.02857142857142857 0.01  0.6111111111111112 0.02857142857142857 0.01  0.6666666666666666 0.02857142857142857 0.01  0.7222222222222222 0.02857142857142857 0.01  0.7777777777777778 0.02857142857142857 0.01  0.8333333333333334 0.02857142857142857 0.01  0.8888888888888888 0.02857142857142857 0.01  0.9444444444444444 0.02857142857142857 0.01  1 0.02857142857142857 0.01  0 0.04285714285714286 0.01  0.05555555555555555 0.04285714285714286 0.01  0.1111111111111111 0.04285714285714286 0.01  0.1666666666666667 0.04285714285714286 0.01  0.2222222222222222 0.04285714285714286 0.01  0.2777777777777778 0.04285714285714286 0.01  0.3333333333333333 0.04285714285714286 0.01  0.3888888888888889 0.04285714285714286 0.01  0.4444444444444444 0.04285714285714286 0.01  0.5 0.04285714285714286 0.01  0.5555555555555556 0.04285714285714286 0.01  0.6111111111111112 0.04285714285714286 0.01  0.6666666666666666 0.04285714285714286 0.01  0.7222222222222222 0.04285714285714286 0.01  0.7777777777777778 0.04285714285714286 0.01  0.8333333333333334 0.04285714285714286 0.01  0.8888888888888888 0.04285714285714286 0.01  0.9444444444444444 0.04285714285714286 0.01  1 0.04285714285714286 0.01  0 0.05714285714285715 0.01  0.05555555555555555 0.05714285714285715 0.01  0.1111111111111111 0.05714285714285715 0.01  0.1666666666666667 0.05714285714285715 0.01  0.2222222222222222 0.05714285714285715 0.01  0.2777777777777778 0.05714285714285715 0.01  0.3333333333333333 0.05714285714285715 0.01  0.3888888888888889 0.05714285714285715 0.01  0.4444444444444444 0.05714285714285715 0.01  0.5 0.05714285714285715 0.01  0.5555555555555556 0.05714285714285715 0.01  0.6111111111111112 0.05714285714285715 0.01  0.6666666666666666 0.05714285714285715 0.01  0.7222222222222222 0.05714285714285715 0.01  0.7777777777777778 0.05714285714285715 0.01  0.8333333333333334 0.05714285714285715 0.01  0.8888888888888888 0.05714285714285715 0.01  0.9444444444444444 0.05714285714285715 0.01  1 0.05714285714285715 0.01  0 0.07142857142857142 0.01  0.05555555555555555 0.07142857142857142 0.01  0.1111111111111111 0.07142857142857142 0.01  0.1666666666666667 0.07142857142857142 0.01  0.2222222222222222 0.07142857142857142 0.01  0.2777777777777778 0.07142857142857142 0.01  0.3333333333333333 0.07142857142857142 0.01  0.3888888888888889 0.07142857142857142 0.01  0.4444444444444444 0.07142857142857142 0.01  0.5 0.07142857142857142 0.01  0.5555555555555556 0.07142857142857142 0.01  0.6111111111111112 0.07142857142857142 0.01  0.6666666666666666 0.07142857142857142 0.01  0.7222222222222222 0.07142857142857142 0.01  0.7777777777777778 0.07142857142857142 0.01  0.8333333333333334 0.07142857142857142 0.01  0.8888888888888888 0.07142857142857142 0.01  
[...]
<PointData  Vectors="f_36"> 
<DataArray  type="Float64"  Name="f_36"  NumberOfComponents="3" format="ascii">0.0000000000000000e+00 0.0000000000000000e+00 0.0000000000000000e+00  8.3302077249005019e-04 -1.8181130354541282e-03 4.8623280604393852e-03  3.3244669983854066e-04 -2.6948082285018862e-03 8.4105224908673833e-03  -8.1442881525273464e-04 -1.9834205699883621e-03 7.5099723976887797e-03  -1.8083064361090605e-03 2.7440569051333810e-04 1.0554684687846432e-03  -1.7869527414587508e-03 2.8878217683661177e-03 -7.8854425332187863e-03  -7.2061508939221463e-04 4.3087320544499767e-03 -1.3467046868904951e-02  5.6905783205694111e-05 4.3347537252597856e-03 -1.3103699758187948e-02  -2.6680446663672350e-04 4.3977512018868407e-03 -1.2296141214372306e-02  -5.5892570537341803e-04 5.1256231158319588e-03 -1.5065580064305079e-02  -2.8398294804820028e-04 5.6808736430188746e-03 -1.7169205164434948e-02  -3.4440435911474557e-04 6.0834336596123249e-03 -1.7664751515020692e-02  -6.7553020198874542e-04 6.9759522188348579e-03 -2.0289906023944256e-02  -6.3328874063804219e-04 8.0069152782246810e-03 -2.3932866545163110e-02  -3.5835927075967904e-04 8.6794563149439497e-03 -2.6256142136500821e-02  -1.4017451830367116e-04 9.0249912057305710e-03 -2.7506718831370305e-02  3.9636093213676054e-06 9.2064898006657819e-03 -2.8242442272021721e-02  3.6061511714779283e-04 9.3802592572212636e-03 -2.8944573897336030e-02  9.1564338155838900e-04 9.9584823502127141e-03 -2.8777121970399683e-02  0.0000000000000000e+00 0.0000000000000000e+00 0.0000000000000000e+00  8.3157829110365618e-04 -1.5877058186829522e-03 3.2098587153785358e-03  3.9380363416306350e-04 -2.4843483736770905e-03 5.9178930600479913e-03  -6.8027528343063306e-04 -1.9706452634571619e-03 5.6073569221594972e-03  -1.6745572742405345e-03 2.4449545582974058e-05 1.1982529195943155e-03  -1.7594168904044004e-03 2.4778181470667946e-03 -5.3100898870277113e-03  -8.0406746489372280e-04 3.9165574028578827e-03 -9.5630517555339647e-03  3.8467850836000616e-05 4.0060574854253418e-03 -9.2365957978700879e-03  -1.8257722636078470e-04 4.0218606022401331e-03 -8.3944860223741369e-03  -5.5096761668131612e-04 4.6676592081428582e-03 -1.0450483603527226e-02  -3.2044001863515577e-04 5.2020834736032050e-03 -1.2079335425185149e-02  -3.0141423474654518e-04 5.5547733176445225e-03 -1.2265209934188706e-02  -6.3667262979815635e-04 6.3446494401827374e-03 -1.4066734909516451e-02  -6.4514403206663727e-04 7.3108697269651151e-03 -1.6769062875549183e-02  -3.7738590547442335e-04 7.9665981244104699e-03 -1.8489068733961486e-02  -1.6119405453796537e-04 8.3102649242822700e-03 -1.9418886555334237e-02  -4.4747436853630951e-05 8.4912279101047611e-03 -1.9993621806662417e-02  1.6705250375606651e-04 8.6760183392871441e-03 -2.0654343401694461e-02  9.3053933449546776e-04 9.4893980956663807e-03 -2.1015380804149175e-02  0.0000000000000000e+00 0.0000000000000000e+00 0.0000000000000000e+00  5.1105285240831723e-04 -1.0188531866056887e-03 1.4286667029805870e-03  2.6079935619718479e-04 -1.6960070728520799e-03 2.8066056222652890e-03  -3.9747352709089163e-04 -1.4658766464912887e-03 2.7811916230335975e-03  -1.0297068497556892e-03 -1.7195688931025930e-04 6.9487090443830647e-04  -1.1206509510767754e-03 1.5486705381708892e-03 -2.5785315292768756e-03  -5.5741455873828025e-04 2.6290873368424242e-03 -4.8493541101819549e-03  -6.3581856853610326e-06 2.7038189774002070e-03 -4.7411545950419957e-03  -1.0903110815449872e-04 2.6512998504479700e-03 -4.2644226251848513e-03  -3.6781252269512061e-04 3.0817076212851027e-03 -5.3671327591110424e-03  -2.4278850694690808e-04 3.4651682296581244e-03 -6.3119955154862543e-03  -2.0457841994903989e-04 3.6692547060978411e-03 -6.4069938261480082e-03  -4.1680802081832857e-04 4.1754639060347836e-03 -7.3253402056987077e-03  -4.4144549495661069e-04 4.8504479150885326e-03 -8.7765812437116727e-03  -2.7477481452427966e-04 5.3213694950844095e-03 -9.7327935833554091e-03  -1.3855840547400374e-04 5.5693477641070238e-03 -1.0288908829061531e-02  -7.4636273602928625e-05 5.7057698825426642e-03 -1.0673695827422471e-02  -3.2943043150028993e-05 5.8260150174331438e-03 -1.1146035865716572e-02  1.0199965120979032e-03 6.8857672124778306e-03 -1.1747314950590051e-02  0.0000000000000000e+00 0.0000000000000000e+00 0.0000000000000000e+00  -1.0489805959020818e-05 9.3042701215488597e-07 -1.5318060835767069e-05  -2.0216669787549765e-05 2.9977957309946550e-06 -5.8409579904118570e-05  -2.9146552841838245e-05 6.1913930799505612e-06 -1.2789225963186478e-04  -3.7209111351862690e-05 1.0386215343552908e-05 -2.2137504382857852e-04  -4.4380454347494501e-05 1.5476995197416425e-05 -3.3634891881376513e-04  -5.0672229714537728e-05 2.1357723868148852e-05 -4.7027712341557329e-04  -5.6127803025827217e-05 2.7925709869082882e-05 -6.2071656672030827e-04  -6.0797139832881914e-05 3.5084680727761938e-05 -7.8538816975840485e-04  -6.4720165479883015e-05 4.2745044408811865e-05 -9.6214120536025681e-04  -6.7939208631286863e-05 5.0822094208651428e-05 -1.1489171903952817e-03  -7.0508536118647858e-05 5.9236491605530969e-05 -1.3437976165635870e-03  -7.2484985957303912e-05 6.7915830012850933e-05 -1.5450335103597468e-03  -7.3927770463901973e-05 7.6794561605617964e-05 -1.7510278893300821e-03  -7.4908220074843801e-05 8.5814784365053745e-05 -1.9603604816466023e-03  -7.5509837371417470e-05 9.4928052425176704e-05 -2.1718359240583745e-03  -7.5822784346393193e-05 1.0409636495760175e-04 -2.3845080390257800e-03  -7.5940830630302910e-05 1.1329268662574809e-04 -2.5976915776231937e-03  -7.5962247551884999e-05 1.2250237579094502e-04 -2.8109723137322621e-03  0.0000000000000000e+00 0.0000000000000000e+00 0.0000000000000000e+00  -9.9076274862993861e-06 1.5089138934528903e-06 -1.5156953260029950e-05  -2.0006074919461647e-05 3.5357728747847859e-06 -5.8178152887670905e-05  -2.9290964723174372e-05 6.6819581585409192e-06 -1.2763429327480066e-04  -3.7682917981657590e-05 1.0823892702444241e-05 -2.2109383233394908e-04  -4.5156878267038549e-05 1.5861150162797371e-05 -3.3604610605168404e-04  -5.1721026566311490e-05 2.1690853697806698e-05 -4.6995405227296072e-04  -5.7417866452025541e-05 2.8211677242341496e-05 -6.2037558566829364e-04  -6.2300324631291327e-05 3.5326245926200472e-05 -7.8503247624586291e-04  -6.6410835368757874e-05 4.2944144224742467e-05 -9.6177360206815929e-04  -6.9791415819041603e-05 5.0981683696372017e-05 -1.1485398017959487e-03  -7.2497025517781458e-05 5.9360095262727293e-05 -1.3434125477238387e-03  -7.4586823060815839e-05 6.8006632494433793e-05 -1.5446427770697648e-03  -7.6120996153822946e-05 7.6856316323724075e-05 -1.7506330997212830e-03  -7.7171423425554802e-05 8.5852305380958196e-05 -1.9599629363715259e-03  -7.7823301228609700e-05 9.4946673230339405e-05 -2.1714365299160187e-03  -7.8169140216379214e-05 1.0410158840596956e-04 -2.3841069709474813e-03  -7.8305313662154589e-05 1.1329008652465113e-04 -2.5972880069112035e-03  -7.8332337377513752e-05 1.2249695081909115e-04 -2.8105641868039072e-03  0.0000000000000000e+00 0.0000000000000000e+00 0.0000000000000000e+00  5.2711115021622068e-04 1.0888156034902501e-03 1.8742647660347138e-03  1.8049866044986195e-04 1.8266704549950059e-03 3.1428011222710888e-03  -5.0715749064824008e-04 1.6538694700502250e-03 2.6683003214849703e-03  -1.0709080535568020e-03 3.6468806862454035e-04 1.0356405719088099e-04  -1.0375103497966144e-03 -1.4441934646014132e-03 -3.2929330697612962e-03  -4.2176075324081843e-04 -2.6915618971672661e-03 -5.2766035676550093e-03  1.2222396629084239e-05 -2.8708932366823029e-03 -4.9225805974863965e-03  -1.8698551666687847e-04 -2.7799485905977274e-03 -4.6131048014354230e-03  -3.7698507686884032e-04 -3.1785535295093914e-03 -5.8829530069419902e-03  -2.2515360476746524e-04 -3.6245838924287592e-03 -6.8030367200203360e-03  -2.3769615641800926e-04 -3.8370530908725495e-03 -6.9620241660719295e-03  -4.3751046231412649e-04 -4.2812841841538682e-03 -7.9499640684736698e-03  -4.6002008740343242e-04 -4.9870422881928720e-03 -9.4214200629337466e-03  -3.4831394452322422e-04 -5.5969512963614651e-03 -1.0492014719858464e-02  -2.4471418983137440e-04 -6.0231726635923610e-03 -1.1276401610430859e-02  -1.7516654905441623e-04 -6.3487615949148991e-03 -1.1912505874461082e-02  -1.5902148773149746e-05 -6.7628812218947241e-03 -1.2574557481119622e-02  6.8870372424821612e-04 -7.7964900807441367e-03 -1.2601524841546139e-02  0.0000000000000000e+00 0.0000000000000000e+00 0.0000000000000000e+00  8.5279256332937057e-04 1.4059273212011891e-03 3.6085457259783286e-03  3.4282966014141360e-04 2.4903586583138945e-03 6.1289273690667027e-03  -7.5080603065692635e-04 2.3686422166345708e-03 5.3718013440646950e-03  -1.6826216968489720e-03 7.0276853825215063e-04 6.2165940007016883e-04  -1.6776580449801661e-03 -1.7783126214794102e-03 -5.8195683832853963e-03  -7.0092744520904894e-04 -3.6207227524211365e-03 -9.7541769365533972e-03  6.3882760745544355e-05 -4.0220028342788606e-03 -9.2712141370839708e-03  -2.2217762296153511e-04 -3.9297242289159312e-03 -8.5685884204441190e-03  -5.8027882163338095e-04 -4.4366363230693507e-03 -1.0717937450744059e-02  -3.3795237814104016e-04 -5.0682393334810028e-03 -1.2399249150007764e-02  -3.1223798651278188e-04 -5.3955188902691641e-03 -1.2650410536952428e-02  -6.4498508226763069e-04 -5.9960971006289311e-03 -1.4347243263747733e-02  -7.0163144541597763e-04 -6.9704490261957167e-03 -1.7020321856877522e-02  -5.1631731662077210e-04 -7.8507349964409886e-03 -1.8988827565547886e-02  -3.4485763508549993e-04 -8.4814078559565971e-03 -2.0390653703295871e-02  -2.0994367322226632e-04 -8.9691775991810902e-03 -2.1487703459906349e-02  4.6491454799634035e-05 -9.6115689053451470e-03 -2.2608073351652207e-02  5.5099253450548375e-04 -1.1232159343240983e-02 -2.2685399278263820e-02  0.0000000000000000e+00 0.0000000000000000e+00 0.0000000000000000e+00  9.0992136289565467e-04 1.3845689888287700e-03 4.8434859489642082e-03  4.5821240736257563e-04 2.6030004227172560e-03 8.3080173644235564e-03  -6.5823837127351140e-04 2.5834715893493653e-03 7.4355975274117475e-03  -1.6971540918304774e-03 9.1699811901709580e-04 1.2040394983975852e-03  -1.8141945240305183e-03 -1.6983259477766832e-03 -7.4432566794609299e-03  -8.4146151442680936e-04 -3.7373722049165860e-03 -1.3032453074505269e-02  8.5841055655658501e-05 -4.2611916401904858e-03 -1.2871289164277933e-02  -1.3740795805563066e-04 -4.1827745565868150e-03 -1.2023373184614442e-02  -6.2152271551480919e-04 -4.6976918435541340e-03 -1.4665245377285013e-02  -3.8607457880562824e-04 -5.3728187990640039e-03 -1.6961406787757038e-02  -2.6543140301994841e-04 -5.7281984509163298e-03 -1.7463713250566754e-02  -6.3126753963198355e-04 -6.3490542936275943e-03 -1.9682655482102400e-02  -7.3958158456534308e-04 -7.3753973768610264e-03 -2.3249366024669565e-02  -5.3839867584467454e-04 -8.3285256596786691e-03 -2.5995218475853489e-02  -3.4863375615681722e-04 -9.0262145458271728e-03 -2.7964553285380254e-02  -1.7511887500667165e-04 -9.5740911017632782e-03 -2.9501435717787700e-02  1.9129188489480940e-04 -1.0263797325566214e-02 -3.1082056917320331e-02  6.0747272306387469e-04 -1.2113810821327925e-02 -3.1843999997154718e-02  0.0000000000000000e+00 0.0000000000000000e+00 0.0000000000000000e+00  3.3782802081139886e-04 -7.3099952469591158e-04 4.7297081522484612e-03  1.8917940010813549e-04 -1.1823574880777460e-03 8.3502278601435709e-03  -2.9172278567242985e-04 -9.3680999722022353e-04 7.5591310612813751e-03  -7.6575422818770842e-04 2.5266170934595788e-05 1.2034856708863985e-03  -8.4191080231513335e-04 1.2065599242448680e-03 -7.7199362874515402e-03  -4.2008615838296068e-04 1.8883309285548193e-03 -1.3357341003545010e-02  -2.0504794501587782e-05 1.9052679680593122e-03 -1.3010099992139517e-02  -9.5142752672863114e-05 1.8954766104268279e-03 -1.2139839894335768e-02  -2.3777852419704584e-04 2.2158895877567334e-03 -1.4880599128450909e-02  -1.2794611586878704e-04 2.4779424781178586e-03 -1.7002048154705757e-02  -1.1454338306594815e-04 2.6368883120931799e-03 -1.7465150181008464e-02  -2.4581742666170771e-04 3.0171714646079770e-03 -2.0038978976814659e-02  -2.4593775538305271e-04 3.4859911969400839e-03 -2.3673527666850561e-02  -1.2535460154938018e-04 3.7949845343072802e-03 -2.6001538523523850e-02  -6.8630256938609210e-06 3.9488496188698971e-03 -2.7249972765440167e-02  1.0569802929136364e-04 4.0347732086813875e-03 -2.7982036171764590e-02  3.9213461852126397e-04 4.2096839731309271e-03 -2.8680404730214819e-02  8.5180966208706728e-04 4.8221586948924665e-03 -2.8513598965272644e-02  0.0000000000000000e+00 0.0000000000000000e+00 0.0000000000000000e+00  3.7418570109433414e-04 -6.4234088905492477e-04 3.1134709815355465e-03  2.1646932650269720e-04 -1.0369104780846652e-03 5.8682814779118953e-03  -2.8091787818693668e-04 -8.4365769111151528e-04 5.6332963877159812e-03  -7.7804314047097618e-04 -1.6308117555340428e-05 1.2974478428748205e-03  -8.7738039182135063e-04 1.0261070005380536e-03 -5.1935117132928749e-03  -4.6106636568776728e-04 1.6563587593789884e-03 -9.4823949141188604e-03  -2.4708903643983098e-05 1.7069280002099830e-03 -9.1569767566904905e-03  -7.3867674340459912e-05 1.7060128972916702e-03 -8.2507943105627028e-03  -2.5092105994243462e-04 1.9788315994651810e-03 -1.0280353378328192e-02  -1.5573348265587682e-04 2.2163140609022590e-03 -1.1928784805503733e-02  -1.2066043734948918e-04 2.3659273662023006e-03 -1.2085392954922303e-02  -2.6223798955121356e-04 2.6983201365492157e-03 -1.3839367157762301e-02  -2.7821717290491633e-04 3.1144716859688474e-03 -1.6534237412163266e-02  -1.5177317554472064e-04 3.3991635729486865e-03 -1.8254906868211216e-02  -3.0620632674517846e-05 3.5456405552891606e-03 -1.9177318645631932e-02  5.5889652171182821e-05 3.6216478516821796e-03 -1.9744668415809328e-02  2.2577431722807449e-04 3.7532479112424130e-03 -2.0406741809078678e-02  7.9141007094310305e-04 4.3987696856918378e-03 -2.0832263162307636e-02  0.0000000000000000e+00 0.0000000000000000e+00 0.0000000000000000e+00  2.4744197157231370e-04 -3.9647990992196783e-04 1.3130993218517656e-03  1.4525248963874097e-04 -6.4540696837741662e-04 2.6802022565849903e-03  -1.7941755881952141e-04 -5.4396055437736521e-04 2.7151429476327533e-03  -5.0763653339999995e-04 -4.0387841641610000e-05 7.4641933403446189e-04  -5.8226121696341733e-04 6.1705347665747825e-04 -2.4196392269922877e-03  -3.2161477939808320e-04 1.0328042986631743e-03 -4.6419215469197953e-03  -2.9937553766138561e-05 1.0811636390391235e-03 -4.5070673432300850e-03  -4.8725225797032329e-05 1.0809416736135278e-03 -3.9753682819845615e-03  -1.7541769653508967e-04 1.2497761001712699e-03 -5.0366665283680806e-03  -1.2402956948684047e-04 1.4035889198849008e-03 -5.9713746499559335e-03  -9.2983493011661986e-05 1.4992710717915134e-03 -6.0254443043571363e-03  -1.8640717551308899e-04 1.7059381942084323e-03 -6.8779924274395875e-03  -2.0444526262912479e-04 1.9709708220293858e-03 -8.2848870248176231e-03  -1.2179886971350560e-04 2.1585659770375540e-03 -9.2099688166434879e-03  -4.3125029974520368e-05 2.2595625009439358e-03 -9.7404547881804349e-03  2.1277502738620061e-06 2.3144806882484841e-03 -1.0109777217206789e-02  4.6058095182267841e-05 2.3749585356572477e-03 -1.0573435598918509e-02  7.2035807106918530e-04 2.9265845575790041e-03 -1.1186954998763555e-02  0.0000000000000000e+00 0.0000000000000000e+00 0.0000000000000000e+00  -4.9330077474729598e-06 8.7273706791668004e-07 -1.4879957171235956e-05  -9.7930032996125932e-06 2.9241920853155247e-06 -5.7999058666827755e-05  -1.4220591945079573e-05 6.0896648368652292e-06 -1.2751581517145993e-04  -1.8221310951822017e-05 1.0259340336044902e-05 -2.2103585545683600e-04  -2.1783938108253552e-05 1.5325787841031871e-05 -3.3604764600931821e-04  -2.4912587798694502e-05 2.1183744564302357e-05 -4.7001307503918442e-04  -2.7627437638822939e-05 2.7731542944799843e-05 -6.2048796903331927e-04  -2.9953381599799346e-05 3.4873053188916626e-05 -7.8519303545018695e-04  -3.1910654064668445e-05 4.2518089900013034e-05 -9.6197778010500222e-04  -3.3519687135122180e-05 5.0581822806461727e-05 -1.1487835267749620e-03  -3.4806771819720472e-05 5.8985039936367302e-05 -1.3436913543999802e-03  -3.5800070297593399e-05 6.7655065481619057e-05 -1.5449521699910597e-03  -3.6528579017879914e-05 7.6526200432444370e-05 -1.7509688010348792e-03  -3.7026842356752704e-05 8.5540604407027192e-05 -1.9603204800637212e-03  -3.7335605799073355e-05 9.4649636227466674e-05 -2.1718113830879312e-03  -3.7499136846493096e-05 1.0381478244158627e-04 -2.3844950517802428e-03  -3.7563411884029724e-05 1.1300839164068696e-04 -2.5976860117749231e-03  -3.7575702356735202e-05 1.2221467455323339e-04 -2.8109681462585951e-03  0.0000000000000000e+00 0.0000000000000000e+00 0.0000000000000000e+00  -5.0234817554939458e-06 1.2903122483427247e-06 -1.4635694709192265e-05  -1.0240763694192468e-05 3.2763656406249616e-06 -5.7729785769955026e-05  -1.4960574867132090e-05 6.4080671734365683e-06 -1.2722400893231268e-04  -1.9227158710451767e-05 1.0544117198007246e-05 -2.2072311014282903e-04  -2.3028616783569097e-05 1.5576763812956373e-05 -3.3571558090670733e-04  -2.6368642088872217e-05 2.1402118291227331e-05 -4.6966339328489509e-04  -2.9267974603352729e-05 2.7919421948888473e-05 -6.2012312182734160e-04  -3.1753314648777518e-05 3.5032265598094746e-05 -7.8481598431158993e-04  -3.3846686419103890e-05 4.2650043243288839e-05 -9.6159116150220953e-04  -3.5569530313576497e-05 5.0688307759097571e-05 -1.1483895172558264e-03  -3.6949424930064404e-05 5.9068229717651372e-05 -1.3432920003432745e-03  -3.8016426007150329e-05 6.7717086728632972e-05 -1.5445493135779198e-03  -3.8801243389820183e-05 7.6569440159212712e-05 -1.7505640036383345e-03  -3.9340170691017303e-05 8.5568020487356743e-05 -1.9599150355514021e-03  -3.9676195988631029e-05 9.4664570257471602e-05 -2.1714061072919842e-03  -3.9856184534212522e-05 1.0382073429197379e-04 -2.3840899842263652e-03  -3.9928937563758910e-05 1.1300884341248425e-04 -2.5972802545549071e-03  -3.9944472426584807e-05 1.2221260848907942e-04 -2.8105606932360160e-03  0.0000000000000000e+00 0.0000000000000000e+00 0.0000000000000000e+00  2.7544591631938791e-04 3.9289269248325156e-04 1.6946094508127794e-03  1.3336498975636418e-04 6.5270032632877030e-04 2.8382302622051367e-03  -2.1235901121199015e-04 6.0454416200289975e-04 2.3714912598119687e-03  -5.3113539625811873e-04 1.6311825058319278e-04 -6.3869773676009578e-07  -5.6758580312448771e-04 -4.6943875161248745e-04 -3.0974270527190533e-03  -2.7934759599674110e-04 -9.1664774975659181e-04 -4.8343003759951427e-03  -1.7186189509767123e-05 -9.9154317615477057e-04 -4.3747013120188768e-03  -7.6187767665383891e-05 -9.5911698633131218e-04 -4.0331003910971551e-03  -1.9159779214535298e-04 -1.0891581384317940e-03 -5.2516449058853491e-03  -1.2845291613391120e-04 -1.2400203905450320e-03 -6.1016884956788097e-03  -1.1199463272273335e-04 -1.3122187578455909e-03 -6.1926588925460407e-03  -2.0911100692583330e-04 -1.4631359053973029e-03 -7.0929928679780716e-03  -2.3308298855852607e-04 -1.7069071725442028e-03 -8.4459078339307915e-03  -1.7575533437900920e-04 -1.9195780773812686e-03 -9.3949397995885982e-03  -1.1068047332098162e-04 -2.0635504463698173e-03 -1.0083139495109807e-02  -5.7033243759283430e-05 -2.1698200152919208e-03 -1.0643111666734510e-02  1.8515535885909833e-05 -2.3448188365392292e-03 -1.1212783117361643e-02  5.3639000413697069e-04 -2.7945334668421319e-03 -1.0873631555807336e-02  0.0000000000000000e+00 0.0000000000000000e+00 0.0000000000000000e+00  4.0345147114936782e-04 6.2689388592191211e-04 3.5044217559358631e-03  2.2404098846574790e-04 1.1323814821372037e-03 6.0189671786060198e-03  -2.9257717470008391e-04 1.1074281000592724e-03 5.2790799847689867e-03  -7.8278679677851865e-04 3.8088475443857260e-04 5.9639534321753187e-04  -8.5492823599914061e-04 -7.3471733844490911e-04 -5.7555203986197779e-03  -4.2273508020404532e-04 -1.5848788998711833e-03 -9.6126500602026731e-03  -4.3428386187422603e-06 -1.7870280930835541e-03 -9.0573947018995661e-03  -8.4478709125826324e-05 -1.7468109382333234e-03 -8.2872759395402548e-03  -2.7652293784032880e-04 -1.9634378382954471e-03 -1.0413181186777930e-02  -1.7861229889257299e-04 -2.2407179357745643e-03 -1.208912105