<?xml version="1.0"?>
<VTKFile type="UnstructuredGrid"  version="0.1"  >
<UnstructuredGrid>
<Piece  NumberOfPoints="760" NumberOfCells="3024">
<Points>
<DataArray  type="Float64"  NumberOfComponents="3"  format="ascii">0 0 0  0.05555555555555555 0 0  0.1111111111111111 0 0  0.1666666666666667 0 0  0.2222222222222222 0 0  0.2777777777777778 0 0  0.3333333333333333 0 0  0.3888888888888889 0 0  0.4444444444444444 0 0  0.5 0 0  0.5555555555555556 0 0  0.6111111111111112 0 0  0.6666666666666666 0 0  0.7222222222222222 0 0  0.7777777777777778 0 0  0.8333333333333334 0 0  0.8888888888888888 0 0  0.9444444444444444 0 0  1 0 0  0 0.01428571428571429 0  0.05555555555555555 0.01428571428571429 0  0.1111111111111111 0.01428571428571429 0  0.1666666666666667 0.01428571428571429 0  0.2222222222222222 0.01428571428571429 0  0.2777777777777778 0.01428571428571429 0  0.3333333333333333 0.01428571428571429 0  0.3888888888888889 0.01428571428571429 0  0.4444444444444444 0.01428571428571429 0  0.5 0.01428571428571429 0  0.5555555555555556 0.01428571428571429 0  0.6111111111111112 0.01428571428571429 0  0.6666666666666666 0.01428571428571429 0  0.7222222222222222 0.01428571428571429 0  0.7777777777777778 0.01428571428571429 0  0.8333333333333334 0.01428571428571429 0  0.8888888888888888 0.01428571428571429 0  0.9444444444444444 0.01428571428571429 0  1 0.01428571428571429 0  0 0.02857142857142857 0  0.05555555555555555 0.02857142857142857 0  0.1111111111111111 0.02857142857142857 0  0.1666666666666667 0.02857142857142857 0  0.2222222222222222 0.02857142857142857 0  0.2777777777777778 0.02857142857142857 0  0.3333333333333333 0.02857142857142857 0  0.3888888888888889 0.02857142857142857 0  0.4444444444444444 0.02857142857142857 0  0.5 0.02857142857142857 0  0.5555555555555556 0.02857142857142857 0  0.6111111111111112 0.02857142857142857 0  0.6666666666666666 0.02857142857142857 0  0.7222222222222222 0.02857142857142857 0  0.7777777777777778 0.02857142857142857 0  0.8333333333333334 0.02857142857142857 0  0.8888888888888888 0.02857142857142857 0  0.9444444444444444 0.02857142857142857 0  1 0.02857142857142857 0  0 0.04285714285714286 0  0.05555555555555555 0.04285714285714286 0  0.1111111111111111 0.04285714285714286 0  0.1666666666666667 0.04285714285714286 0  0.2222222222222222 0.04285714285714286 0  0.2777777777777778 0.04285714285714286 0  0.3333333333333333 0.04285714285714286 0  0.3888888888888889 0.04285714285714286 0  0.4444444444444444 0.04285714285714286 0  0.5 0.04285714285714286 0  0.5555555555555556 0.04285714285714286 0  0.6111111111111112 0.04285714285714286 0  0.6666666666666666 0.04285714285714286 0  0.7222222222222222 0.04285714285714286 0  0.7777777777777778 0.04285714285714286 0  0.8333333333333334 0.04285714285714286 0  0.8888888888888888 0.04285714285714286 0  0.9444444444444444 0.04285714285714286 0  1 0.04285714285714286 0  0 0.05714285714285715 0  0.05555555555555555 0.05714285714285715 0  0.1111111111111111 0.05714285714285715 0  0.1666666666666667 0.05714285714285715 0  0.2222222222222222 0.05714285714285715 0  0.2777777777777778 0.05714285714285715 0  0.3333333333333333 0.05714285714285715 0  0.3888888888888889 0.05714285714285715 0  0.4444444444444444 0.05714285714285715 0  0.5 0.05714285714285715 0  0.5555555555555556 0.05714285714285715 0  0.6111111111111112 0.05714285714285715 0  0.6666666666666666 0.05714285714285715 0  0.7222222222222222 0.05714285714285715 0  0.7777777777777778 0.05714285714285715 0  0.8333333333333334 0.05714285714285715 0  0.8888888888888888 0.05714285714285715 0  0.9444444444444444 0.05714285714285715 0  1 0.05714285714285715 0  0 0.07142857142857142 0  0.05555555555555555 0.07142857142857142 0  0.1111111111111111 0.07142857142857142 0  0.1666666666666667 0.07142857142857142 0  0.2222222222222222 0.07142857142857142 0  0.2777777777777778 0.07142857142857142 0  0.3333333333333333 0.07142857142857142 0  0.3888888888888889 0.07142857142857142 0  0.4444444444444444 0.07142857142857142 0  0.5 0.07142857142857142 0  0.5555555555555556 0.07142857142857142 0  0.6111111111111112 0.07142857142857142 0  0.6666666666666666 0.07142857142857142 0  0.7222222222222222 0.07142857142857142 0  0.7777777777777778 0.07142857142857142 0  0.8333333333333334 0.07142857142857142 0  0.8888888888888888 0.07142857142857142 0  0.9444444444444444 0.07142857142857142 0  1 0.07142857142857142 0  0 0.08571428571428573 0  0.05555555555555555 0.08571428571428573 0  0.1111111111111111 0.08571428571428573 0  0.1666666666666667 0.08571428571428573 0  0.2222222222222222 0.08571428571428573 0  0.2777777777777778 0.08571428571428573 0  0.3333333333333333 0.08571428571428573 0  0.3888888888888889 0.08571428571428573 0  0.4444444444444444 0.08571428571428573 0  0.5 0.08571428571428573 0  0.5555555555555556 0.08571428571428573 0  0.6111111111111112 0.08571428571428573 0  0.6666666666666666 0.08571428571428573 0  0.7222222222222222 0.08571428571428573 0  0.7777777777777778 0.08571428571428573 0  0.8333333333333334 0.08571428571428573 0  0.8888888888888888 0.08571428571428573 0  0.9444444444444444 0.08571428571428573 0  1 0.08571428571428573 0  0 0.1 0  0.05555555555555555 0.1 0  0.1111111111111111 0.1 0  0.1666666666666667 0.1 0  0.2222222222222222 0.1 0  0.2777777777777778 0.1 0  0.3333333333333333 0.1 0  0.3888888888888889 0.1 0  0.4444444444444444 0.1 0  0.5 0.1 0  0.5555555555555556 0.1 0  0.6111111111111112 0.1 0  0.6666666666666666 0.1 0  0.7222222222222222 0.1 0  0.7777777777777778 0.1 0  0.8333333333333334 0.1 0  0.8888888888888888 0.1 0  0.9444444444444444 0.1 0  1 0.1 0  0 0 0.01  0.05555555555555555 0 0.01  0.1111111111111111 0 0.01  0.1666666666666667 0 0.01  0.2222222222222222 0 0.01  0.2777777777777778 0 0.01  0.3333333333333333 0 0.01  0.3888888888888889 0 0.01  0.4444444444444444 0 0.01  0.5 0 0.01  0.5555555555555556 0 0.01  0.6111111111111112 0 0.01  0.6666666666666666 0 0.01  0.7222222222222222 0 0.01  0.7777777777777778 0 0.01  0.8333333333333334 0 0.01  0.8888888888888888 0 0.01  0.9444444444444444 0 0.01  1 0 0.01  0 0.01428571428571429 0.01  0.05555555555555555 0.01428571428571429 0.01  0.1111111111111111 0.01428571428571429 0.01  0.1666666666666667 0.01428571428571429 0.01  0.2222222222222222 0.01428571428571429 0.01  0.2777777777777778 0.01428571428571429 0.01  0.3333333333333333 0.01428571428571429 0.01  0.3888888888888889 0.01428571428571429 0.01  0.4444444444444444 0.01428571428571429 0.01  0.5 0.01428571428571429 0.01  0.5555555555555556 0.01428571428571429 0.01  0.6111111111111112 0.01428571428571429 0.01  0.6666666666666666 0.01428571428571429 0.01  0.7222222222222222 0.01428571428571429 0.01  0.7777777777777778 0.01428571428571429 0.01  0.8333333333333334 0.01428571428571429 0.01  0.8888888888888888 0.01428571428571429 0.01  0.9444444444444444 0.01428571428571429 0.01  1 0.01428571428571429 0.01  0 0.02857142857142857 0.01  0.05555555555555555 0.02857142857142857 0.01  0.1111111111111111 0.02857142857142857 0.01  0.1666666666666667 0.02857142857142857 0.01  0.2222222222222222 0.02857142857142857 0.01  0.2777777777777778 0.02857142857142857 0.01  0.3333333333333333 0.02857142857142857 0.01  0.3888888888888889 0.02857142857142857 0.01  0.4444444444444444 0.02857142857142857 0.01  0.5 0.02857142857142857 0.01  0.5555555555555556 0.02857142857142857 0.01  0.6111111111111112 0.02857142857142857 0.01  0.6666666666666666 0.02857142857142857 0.01  0.7222222222222222 0.02857142857142857 0.01  0.7777777777777778 0.02857142857142857 0.01  0.8333333333333334 0.02857142857142857 0.01  0.8888888888888888 0.02857142857142857 0.01  0.9444444444444444 0.02857142857142857 0.01  1 0.02857142857142857 0.01  0 0.04285714285714286 0.01  0.05555555555555555 0.04285714285714286 0.01  0.1111111111111111 0.04285714285714286 0.01  0.1666666666666667 0.04285714285714286 0.01  0.2222222222222222 0.04285714285714286 0.01  0.2777777777777778 0.04285714285714286 0.01  0.3333333333333333 0.04285714285714286 0.01  0.3888888888888889 0.04285714285714286 0.01  0.4444444444444444 0.04285714285714286 0.01  0.5 0.04285714285714286 0.01  0.5555555555555556 0.04285714285714286 0.01  0.6111111111111112 0.04285714285714286 0.01  0.6666666666666666 0.04285714285714286 0.01  0.7222222222222222 0.04285714285714286 0.01  0.7777777777777778 0.04285714285714286 0.01  0.8333333333333334 0.04285714285714286 0.01  0.8888888888888888 0.04285714285714286 0.01  0.9444444444444444 0.04285714285714286 0.01  1 0.04285714285714286 0.01  0 0.05714285714285715 0.01  0.05555555555555555 0.05714285714285715 0.01  0.1111111111111111 0.05714285714285715 0.01  0.1666666666666667 0.05714285714285715 0.01  0.2222222222222222 0.05714285714285715 0.01  0.2777777777777778 0.05714285714285715 0.01  0.3333333333333333 0.05714285714285715 0.01  0.3888888888888889 0.05714285714285715 0.01  0.4444444444444444 0.05714285714285715 0.01  0.5 0.05714285714285715 0.01  0.5555555555555556 0.05714285714285715 0.01  0.6111111111111112 0.05714285714285715 0.01  0.6666666666666666 0.05714285714285715 0.01  0.7222222222222222 0.05714285714285715 0.01  0.7777777777777778 0.05714285714285715 0.01  0.8333333333333334 0.05714285714285715 0.01  0.8888888888888888 0.05714285714285715 0.01  0.9444444444444444 0.05714285714285715 0.01  1 0.05714285714285715 0.01  0 0.07142857142857142 0.01  0.05555555555555555 0.07142857142857142 0.01  0.1111111111111111 0.07142857142857142 0.01  0.1666666666666667 0.07142857142857142 0.01  0.2222222222222222 0.07142857142857142 0.01  0.2777777777777778 0.07142857142857142 0.01  0.3333333333333333 0.07142857142857142 0.01  0.3888888888888889 0.07142857142857142 0.01  0.4444444444444444 0.07142857142857142 0.01  0.5 0.07142857142857142 0.01  0.5555555555555556 0.07142857142857142 0.01  0.6111111111111112 0.07142857142857142 0.01  0.6666666666666666 0.07142857142857142 0.01  0.7222222222222222 0.07142857142857142 0.01  0.7777777777777778 0.07142857142857142 0.01  0.8333333333333334 0.07142857142857142 0.01  0.8888888888888888 0.07142857142857142 0.01  
[...]
<PointData  Vectors="f_36"> 
<DataArray  type="Float64"  Name="f_36"  NumberOfComponents="3" format="ascii">0.0000000000000000e+00 0.0000000000000000e+00 0.0000000000000000e+00  -1.2546340868698819e-03 2.5228910269681024e-03 -5.9811428804248858e-03  -1.3057552917394653e-03 4.6760679635218204e-03 -1.2472975016100521e-02  -7.5779831644585190e-04 6.0378459837551876e-03 -1.7207966030873455e-02  1.1342914522673401e-04 6.1733279584967318e-03 -1.8528659548722130e-02  1.0825055674356771e-03 4.9195923534342476e-03 -1.5658970255853614e-02  1.6704887756970504e-03 2.6382601933348853e-03 -8.8125790387049326e-03  1.2782766841124120e-03 4.9871193122177817e-04 -1.2426922378862353e-03  3.2135471553638252e-04 -3.7692738675785279e-04 2.0141796625805244e-03  -7.3683164403479888e-06 -3.8375352974928586e-04 1.2586856457440277e-03  5.3402990294952840e-04 -8.3385764483337021e-04 1.6752762930443885e-03  9.6258558052127283e-04 -2.0668229726464142e-03 5.5711487748101177e-03  7.3900455819262908e-04 -3.2370317163760284e-03 9.6417608744972776e-03  4.5492231016794370e-04 -3.8942840472553316e-03 1.1492737301536639e-02  4.4267538636776109e-04 -4.4103769377879616e-03 1.2907679348505525e-02  4.3056305590467690e-04 -4.9466151634442136e-03 1.4666607100067728e-02  3.0936266374075489e-04 -5.3799763726389413e-03 1.6132438275038040e-02  2.2292492409705885e-05 -5.6861161004033269e-03 1.7208539053209182e-02  -3.4050470919347455e-04 -6.0861914490909904e-03 1.7416880877061735e-02  0.0000000000000000e+00 0.0000000000000000e+00 0.0000000000000000e+00  -1.2135998327031381e-03 2.1496168767738072e-03 -3.7346587457937020e-03  -1.2811222879296248e-03 4.1505218843221137e-03 -8.2602472438829122e-03  -7.7913992632632878e-04 5.4980000486545590e-03 -1.1721791262562706e-02  4.1344595582160869e-05 5.7471628111491957e-03 -1.2874098030528674e-02  9.6487207361003568e-04 4.7051669700689204e-03 -1.1102071637862171e-02  1.5788586972572628e-03 2.6432329578998646e-03 -6.3456833115170756e-03  1.3041005320990771e-03 5.9978429491199545e-04 -7.7703224201699248e-04  3.9168106110291988e-04 -3.1437494656593910e-04 1.6824909225405978e-03  -2.5708650887431675e-05 -3.3994187162319589e-04 9.6293795846035955e-04  4.3881181175351103e-04 -6.9078232879052359e-04 9.8503479733282138e-04  9.1364344219604812e-04 -1.7917119729581809e-03 3.7347101832687587e-03  7.5172067277379500e-04 -2.9024877223614702e-03 6.7434808057436095e-03  4.4037275007043894e-04 -3.5407327768379794e-03 8.0218123596136979e-03  4.0904866073111551e-04 -4.0201674013654442e-03 8.9578144580477834e-03  4.1396012277086070e-04 -4.5200693645782155e-03 1.0217980396093689e-02  3.1889178853176220e-04 -4.9352139067270666e-03 1.1291431364343504e-02  1.1770660675680169e-04 -5.2489404030087250e-03 1.2152372359025707e-02  -3.7312252320251363e-04 -5.7975574502065440e-03 1.2619888533222457e-02  0.0000000000000000e+00 0.0000000000000000e+00 0.0000000000000000e+00  -7.3924915093628927e-04 1.3140453304835498e-03 -1.5822160776997763e-03  -7.9905887908442847e-04 2.6593566517414246e-03 -3.7362421140684408e-03  -4.9783534396831560e-04 3.6390338416809180e-03 -5.4498192902817499e-03  6.6321961239909780e-06 3.9061153379630676e-03 -6.0903643331132150e-03  5.7879063775760848e-04 3.2917707500606259e-03 -5.3365650244382003e-03  9.7682821636464268e-04 1.9177709232547464e-03 -3.0646595055308316e-03  8.4374066766881742e-04 4.6209754398530799e-04 -2.4391968981248225e-04  2.8377845173902698e-04 -2.2906875438926706e-04 1.0686685930776064e-03  -1.0289793386179021e-05 -2.2296537924516559e-04 6.8175133845009344e-04  2.5611616861047045e-04 -3.8633281704409848e-04 5.9410542221111225e-04  5.7283243949403904e-04 -1.1115449547171943e-03 1.9497724855755635e-03  4.9434953699731504e-04 -1.8955136247112625e-03 3.5114705694416957e-03  2.8830684991232070e-04 -2.3392091726889891e-03 4.1620003660461499e-03  2.6024702714751884e-04 -2.6548713906072844e-03 4.6228564676569234e-03  2.7018091221386875e-04 -2.9956210737859122e-03 5.2792443718523282e-03  2.2005875536335045e-04 -3.2912223649061555e-03 5.8541262534165372e-03  1.4752637283694690e-04 -3.5121902181787898e-03 6.3508880098621717e-03  -5.0907998674215224e-04 -4.2048075790183407e-03 6.8406887921832896e-03  0.0000000000000000e+00 0.0000000000000000e+00 0.0000000000000000e+00  3.9339401358956409e-06 -3.1206516919176488e-07 5.4718272123945402e-06  7.8147372623289594e-06 -1.0077683399721922e-06 2.1687241142023929e-05  1.1609171075563563e-05 -2.1071718352478807e-06 4.8766069488951723e-05  1.5250733403596854e-05 -3.5864744173891178e-06 8.6374894862182723e-05  1.8671934992234994e-05 -5.4253049474406526e-06 1.3399310483332497e-04  2.1808118681524639e-05 -7.5976590668708266e-06 1.9089875743114637e-04  2.4613889438739009e-05 -1.0072058961115973e-05 2.5619720940997374e-04  2.7074961478136174e-05 -1.2813168647687786e-05 3.2890429394027336e-04  2.9199481102085155e-05 -1.5785114674149790e-05 4.0804878479856537e-04  3.0995437208681169e-05 -1.8953861477015700e-05 4.9270465523535572e-04  3.2463155494516024e-05 -2.2286628489483441e-05 5.8195151840577896e-04  3.3609739776767998e-05 -2.5750586527945223e-05 6.7485890629664165e-04  3.4459995996416984e-05 -2.9313990695104049e-05 7.7053981516452094e-04  3.5049825851186722e-05 -3.2948829356341914e-05 8.6820597225414887e-04  3.5419387516984309e-05 -3.6631879177391251e-05 9.6717732498303121e-04  3.5614879641582435e-05 -4.0344420046062872e-05 1.0668917139549452e-03  3.5689633878909645e-05 -4.4072811302784185e-05 1.1669283993246662e-03  3.5703437299176132e-05 -4.7809808148633296e-05 1.2670279715280774e-03  0.0000000000000000e+00 0.0000000000000000e+00 0.0000000000000000e+00  3.6867010447412311e-06 -5.3891468775603065e-07 5.4134005838269665e-06  7.6771636967170002e-06 -1.2334799938277954e-06 2.1604907782880887e-05  1.1584331976704211e-05 -2.3270750613329633e-06 4.8677004694325490e-05  1.5339453732757553e-05 -3.7951289661968193e-06 8.6281286737088266e-05  1.8874937456880806e-05 -5.6179330498836129e-06 1.3389600049201777e-04  2.2123676082772640e-05 -7.7704633710454338e-06 1.9079818125332626e-04  2.5036178104162246e-05 -1.0223473036451433e-05 2.5609274019149336e-04  2.7594240581864432e-05 -1.2943976476208832e-05 3.2879594938825784e-04  2.9805278169419197e-05 -1.5896553959067957e-05 4.0793759661439226e-04  3.1679034671366960e-05 -1.9046015849099177e-05 4.9259220579012076e-04  3.3216360757168084e-05 -2.2359216477423763e-05 5.8183904788688728e-04  3.4422605770795881e-05 -2.5804605799268286e-05 6.7474713645239730e-04  3.5321394307265342e-05 -2.9351648291737883e-05 7.7042942354204431e-04  3.5949381591807371e-05 -3.2972490759025163e-05 8.6809758414696720e-04  3.6347521010442434e-05 -3.6644050575245913e-05 9.6707095198196721e-04  3.6562444502299253e-05 -4.0348087640073882e-05 1.0667865684739902e-03  3.6648290931462480e-05 -4.4071342288427100e-05 1.1668229709062199e-03  3.6665613365855152e-05 -4.7806496434066838e-05 1.2669200575416443e-03  0.0000000000000000e+00 0.0000000000000000e+00 0.0000000000000000e+00  -8.1337734914967044e-04 -1.4569811668420835e-03 -2.2922828738320611e-03  -7.8230641079621050e-04 -2.9200102792048140e-03 -4.6780581823208196e-03  -4.2530636314774817e-04 -4.0155540578779396e-03 -6.3307810975798805e-03  9.9467499204646643e-05 -4.3474115603045630e-03 -6.6743453000061882e-03  6.4916532016339931e-04 -3.7506332806134992e-03 -5.4947047260581099e-03  9.7070451507672733e-04 -2.3539209450073790e-03 -2.8989488516443789e-03  7.4719979545878113e-04 -7.8538615014849965e-04 -7.9410528024059427e-05  1.8986969210779724e-04 7.1132761932127372e-05 1.0135823506212300e-03  -2.1984040467948970e-05 1.3019035242739388e-04 5.2678873133871077e-04  2.9002275641456490e-04 2.3306784252563232e-04 5.9117743799187033e-04  5.6505460096566422e-04 9.2923839593240165e-04 2.1312961878298419e-03  4.5974114980626651e-04 1.8104740559042713e-03 3.7334952149193626e-03  3.1517819564948847e-04 2.4039123263775199e-03 4.4601937110918576e-03  3.3750313717444873e-04 2.8751754569238757e-03 5.1781908709701016e-03  3.4491960441634928e-04 3.3953109467365012e-03 6.1309910931120117e-03  2.7109337077626004e-04 3.8809689139548713e-03 6.9445038411986623e-03  1.1251177482578235e-04 4.3390854803241072e-03 7.5894388077228665e-03  -3.7294429785480207e-04 5.0798864623665084e-03 7.6925891550880940e-03  0.0000000000000000e+00 0.0000000000000000e+00 0.0000000000000000e+00  -1.2938290833174801e-03 -1.8834819168205355e-03 -4.4968574872978695e-03  -1.2825173135172353e-03 -3.9428665803198631e-03 -9.2113335312839998e-03  -7.2046929330944222e-04 -5.5316696088617877e-03 -1.2554832984537136e-02  1.1766200013671263e-04 -6.0950434284337369e-03 -1.3363053032087922e-02  1.0009647479547867e-03 -5.3764920213945295e-03 -1.1197849245866644e-02  1.5433410853529317e-03 -3.5186377994563299e-03 -6.2930159310927401e-03  1.2267783549419705e-03 -1.3291640071148620e-03 -8.5522904379593063e-04  3.1949271132640506e-04 -2.1584879703044315e-05 1.4474354125390311e-03  -7.6463630040706987e-05 1.6969015028924173e-04 6.8743112681477370e-04  4.0925572260447807e-04 3.1116600623964518e-04 7.5696291878592421e-04  8.9281324584938805e-04 1.2230402321948390e-03 3.5631410162833971e-03  7.4139982996507801e-04 2.4504860856066728e-03 6.6403832261938515e-03  4.8046029600012187e-04 3.3254390075494584e-03 8.1171410561179658e-03  5.1357319523738683e-04 4.0064320187886077e-03 9.4782812388645461e-03  5.3818998949611949e-04 4.7395240950232672e-03 1.1268797646411054e-02  4.0699069209272404e-04 5.4384451328118354e-03 1.2815238785894505e-02  1.5017745454606803e-04 6.1277098479265053e-03 1.4025122111919166e-02  -2.1927439082904826e-04 7.2810762733073828e-03 1.4295295238349538e-02  0.0000000000000000e+00 0.0000000000000000e+00 0.0000000000000000e+00  -1.3196511034875447e-03 -1.8387797746227666e-03 -6.1698421548074655e-03  -1.3667692963368996e-03 -4.0533020525132255e-03 -1.2700719550870716e-02  -8.1811499449735328e-04 -5.8018609459415740e-03 -1.7439420821045333e-02  3.4147573184158398e-05 -6.4949365467694862e-03 -1.8728714335742754e-02  9.5416585264470266e-04 -5.8337177318549789e-03 -1.5921375569715072e-02  1.5822721331251019e-03 -3.9288516999727123e-03 -9.3783873290727033e-03  1.3561307490093204e-03 -1.5905302283206713e-03 -1.9821451986237327e-03  3.9807572848814368e-04 -1.1805460462090845e-04 1.4854449082639157e-03  -1.3170254053985046e-04 1.5197978779585736e-04 8.5575551432266598e-04  3.3262750528385848e-04 2.9366814952085535e-04 1.0157480704182540e-03  9.2101907136058273e-04 1.2240945667452078e-03 4.6538813469812323e-03  8.1071586418366066e-04 2.5269135187597600e-03 8.8582417381010050e-03  4.8544142563300435e-04 3.4821132499656634e-03 1.1087060789349953e-02  5.0892951976839237e-04 4.2214690580121015e-03 1.3029266705460462e-02  5.5972538498637791e-04 5.0098273851140393e-03 1.5487941804321179e-02  4.1012413705340253e-04 5.7724775544483837e-03 1.7659747385325313e-02  7.7530456022228332e-05 6.5166968991590829e-03 1.9398864813783303e-02  -2.3589871922129915e-04 7.8257583361563462e-03 2.0224752359790297e-02  0.0000000000000000e+00 0.0000000000000000e+00 0.0000000000000000e+00  -5.0187185145671479e-04 9.8910832636025549e-04 -5.7749260328855022e-03  -5.8791551299469289e-04 1.9619212636655349e-03 -1.2267736803670323e-02  -3.7405907198130275e-04 2.5992666487472758e-03 -1.7025742770083042e-02  -5.0567854910262779e-06 2.7122741887248710e-03 -1.8407007992130357e-02  4.1797678129949225e-04 2.2117024330342459e-03 -1.5626453189195852e-02  7.0803968869457136e-04 1.2221374482862203e-03 -8.8502098608682113e-03  5.9338588557098155e-04 2.4089719861568150e-04 -1.2745712514908576e-03  1.9034273600913266e-04 -1.8281003117876887e-04 2.0242674522234867e-03  7.4974353391875000e-06 -1.6484699695859761e-04 1.2522576761828167e-03  2.1861629694440882e-04 -3.1664418639791884e-04 1.5956590233052624e-03  4.3315477417248447e-04 -8.5300546190445272e-04 5.4465175879987206e-03  3.6575759699666334e-04 -1.3932102541606155e-03 9.5226513437930028e-03  2.3717033659675509e-04 -1.6877966399834734e-03 1.1370235490001350e-02  2.2294510170848595e-04 -1.9037458395354400e-03 1.2761319994917085e-02  2.1412662083093660e-04 -2.1372856027951567e-03 1.4507662024594251e-02  1.3691981181201509e-04 -2.3349426003303067e-03 1.5970631818094279e-02  -6.7786164638311100e-05 -2.5311938525966081e-03 1.7043933643422046e-02  -3.5866286418172617e-04 -2.9186831559254948e-03 1.7252471284150552e-02  0.0000000000000000e+00 0.0000000000000000e+00 0.0000000000000000e+00  -5.4752486971190045e-04 8.6938193238191540e-04 -3.5866937784766930e-03  -6.2507897492476575e-04 1.7166484568686862e-03 -8.1013060442936928e-03  -4.0106968595791964e-04 2.2975205366593662e-03 -1.1567264631170473e-02  -1.7251238548592471e-05 2.4217252554852185e-03 -1.2752904995607361e-02  4.2148662880789063e-04 2.0023455465295824e-03 -1.1041381202941198e-02  7.3267652689261594e-04 1.1419796961663715e-03 -6.3401661417124373e-03  6.4113463286681745e-04 2.6680588203485732e-04 -7.7297360152824121e-04  2.2456081129414510e-04 -1.3969063971527249e-04 1.7109782734077729e-03  2.1889350890173922e-06 -1.5055819549468475e-04 9.6693088070255598e-04  2.0132606300780456e-04 -2.8323773447595595e-04 9.2221246205773718e-04  4.4287823815930647e-04 -7.4464046838437737e-04 3.6344663568626777e-03  3.9060986650609402e-04 -1.2263766165441425e-03 6.6484986508215955e-03  2.4203194856056077e-04 -1.5029812349283632e-03 7.9188106719074412e-03  2.1797699620071655e-04 -1.7020456389683840e-03 8.8274943682876590e-03  2.1674582578325096e-04 -1.9109502082548197e-03 1.0074180317287674e-02  1.5768274756223935e-04 -2.0863086360809447e-03 1.1143177717564456e-02  1.9044231940517759e-05 -2.2505056893949477e-03 1.2003235332607045e-02  -3.3650218817888011e-04 -2.6574194695495063e-03 1.2509186997674166e-02  0.0000000000000000e+00 0.0000000000000000e+00 0.0000000000000000e+00  -3.6153254381287355e-04 5.2911451053544738e-04 -1.4054472311552785e-03  -4.1187842961506278e-04 1.0502568515887460e-03 -3.4603855123544955e-03  -2.6621341626866608e-04 1.4259225782774978e-03 -5.1101006616747838e-03  -1.4717030219540916e-05 1.5223962818255599e-03 -5.7512792162778964e-03  2.7291767004703057e-04 1.2780098517695372e-03 -5.0699110116841093e-03  4.8089640134149847e-04 7.4775168901607526e-04 -2.9112241136886674e-03  4.3348866458734744e-04 1.9086471950101523e-04 -1.7720150088960330e-04  1.6401036055277478e-04 -8.2444560143618228e-05 1.0971630459156087e-03  5.3100776669801343e-06 -9.8855942934926105e-05 6.7218246100805455e-04  1.2579264815190010e-04 -1.7629651593650532e-04 5.1814493528204236e-04  2.9142530277978193e-04 -4.5874074692839659e-04 1.8074491583620503e-03  2.6657440196550092e-04 -7.6419559623365691e-04 3.3261677917283956e-03  1.6387740145033697e-04 -9.4505036929138785e-04 3.9359820719865731e-03  1.4318605937752396e-04 -1.0738006013422819e-03 4.3508400352930939e-03  1.4597308533113886e-04 -1.2073942533970250e-03 4.9742236877494380e-03  1.1600221708540783e-04 -1.3215086886588607e-03 5.5272373885630862e-03  6.4421965059299874e-05 -1.4136889613527604e-03 6.0082960567922087e-03  -3.5321884548607230e-04 -1.7578646039957914e-03 6.5020562362487254e-03  0.0000000000000000e+00 0.0000000000000000e+00 0.0000000000000000e+00  1.8537699996076492e-06 -2.9478808914686742e-07 5.3059125295942592e-06  3.7858453916589991e-06 -9.8830018765688492e-07 2.1522150497626654e-05  5.6617858325983424e-06 -2.0815332108155190e-06 4.8605203484605379e-05  7.4641849947112722e-06 -3.5557778199911120e-06 8.6221247605782909e-05  9.1606529311153183e-06 -5.3892406854363822e-06 1.3384937387978199e-04  1.0719078764535613e-05 -7.5554692103373968e-06 1.9076740777338350e-04  1.2116020656850715e-05 -1.0023206966614896e-05 2.5607989515196447e-04  1.3342996260693883e-05 -1.2758033086378918e-05 3.2880153303839580e-04  1.4403371722519899e-05 -1.5724829585049412e-05 4.0796034622762043e-04  1.5301499227234806e-05 -1.8889511234802645e-05 4.9263028902303682e-04  1.6037873233541597e-05 -2.2218894666433605e-05 5.8189110169295979e-04  1.6615453724619659e-05 -2.5680154203632859e-05 6.7481194821000703e-04  1.7045721335419991e-05 -2.9241820000354351e-05 7.7050517294345610e-04  1.7346136064906771e-05 -3.2875786471089479e-05 8.6818209153864667e-04  1.7536392295468973e-05 -3.6558386884851736e-05 9.6716242497590292e-04  1.7639013354836275e-05 -4.0270447824056570e-05 1.0668837301459888e-03  1.7679975864639176e-05 -4.3997953015551267e-05 1.1669249517958905e-03  1.7687992147369583e-05 -4.7733047846497643e-05 1.2670253861889187e-03  0.0000000000000000e+00 0.0000000000000000e+00 0.0000000000000000e+00  1.8708458622150615e-06 -4.5553285192968274e-07 5.2197555391294336e-06  3.9228259106866330e-06 -1.1337268721947726e-06 2.1428013149259573e-05  5.9018565542000903e-06 -2.2218702966959512e-06 4.8504910044872564e-05  7.8040202863630691e-06 -3.6891117569117279e-06 8.6116209029084067e-05  9.5958366962850510e-06 -5.5129118784453050e-06 1.3374058217020476e-04  1.1243670329812519e-05 -7.6671718103445544e-06 1.9065515727262469e-04  1.2722306365706970e-05 -1.0121742944193391e-05 2.5596421185640071e-04  1.4021864407502647e-05 -1.2843496622090931e-05 3.2868283408777222e-04  1.5145482371192751e-05 -1.5797799081327760e-05 4.0783974374796096e-04  1.6098138827256759e-05 -1.8950169565161245e-05 4.9250922673149536e-04  1.6880648503241980e-05 -2.2267211153294592e-05 5.8177080718749209e-04  1.7495716353047455e-05 -2.5716669609131583e-05 6.7469332815651593e-04  1.7954927166701316e-05 -2.9267780421615040e-05 7.7038903425053417e-04  1.8276644070375737e-05 -3.2892682118732500e-05 8.6806904035994256e-04  1.8481630525911191e-05 -3.6567835842227460e-05 9.6705245745352930e-04  1.8593449248846911e-05 -4.0274327228134598e-05 1.0667760710044130e-03  1.8639358456085451e-05 -4.3998320133535398e-05 1.1668181207803311e-03  1.8649348672394265e-05 -4.7731812361106668e-05 1.2669178698607041e-03  0.0000000000000000e+00 0.0000000000000000e+00 0.0000000000000000e+00  -4.0806499006374922e-04 -5.1923630833262426e-04 -2.0412651573428649e-03  -4.2082387584334145e-04 -1.0266176060682618e-03 -4.1697425883716350e-03  -2.5190163878440510e-04 -1.4190613415554821e-03 -5.6041084614380189e-03  1.1556938010417628e-05 -1.5454356864687067e-03 -5.8543014047852783e-03  2.9488063637373303e-04 -1.3449538062502006e-03 -4.7498069071062006e-03  4.8215408142702587e-04 -8.6074665851983937e-04 -2.3787943061571049e-03  4.0709329974408196e-04 -3.0814132371550498e-04 1.6833964066520333e-04  1.2869732564105011e-04 3.3497396477744992e-06 1.0703978084906501e-03  -1.4917219896308005e-05 3.4165647245975812e-05 5.0830437041299488e-04  1.2321798867920300e-04 6.9651669748005009e-05 5.2565007651250229e-04  2.8522157927529429e-04 3.0667101353281138e-04 1.9615894449775176e-03  2.5182769548978158e-04 6.1393130992142204e-04 3.4172780080920632e-03  1.6872710143933943e-04 8.2670201210511705e-04 4.0097670815987052e-03  1.7446020609830621e-04 9.9448062026598642e-04 4.6184675092390331e-03  1.8164706324818577e-04 1.1733011936038119e-03 5.4719355025376745e-03  1.3782313649514201e-04 1.3399471134903015e-03 6.1887026349960591e-03  5.9465058569766700e-05 1.5227247135735401e-03 6.7335283388166014e-03  -2.9173911350124183e-04 1.8353598933160988e-03 6.5827305437085350e-03  0.0000000000000000e+00 0.0000000000000000e+00 0.0000000000000000e+00  -5.8951986378300600e-04 -8.2507260591056092e-04 -4.3438931968759684e-03  -6.4176277095449993e-04 -1.7522225916720045e-03 -8.9909002004132533e-03  -3.9247651800361423e-04 -2.4838282411724449e-03 -1.2252099270694154e-02  -4.9848073675365526e-07 -2.7609118351413415e-03 -1.3021190516098687e-02  4.2389859850683467e-04 -2.4605076501903887e-03 -1.0881754183021891e-02  7.1342930324571870e-04 -1.6379162622347752e-03 -6.0553251683667158e-03  6.1285239550282265e-04 -6.4711883434006440e-04 -7.0236872189506790e-04  1.8713066327710249e-04 -3.8758875731554354e-05 1.5296096814737493e-03  -4.7435357458185741e-05 6.2233108840650778e-05 7.0102504290355211e-04  1.6052064789341149e-04 1.2249973179602014e-04 7.0809401877940852e-04  4.2212075270729353e-04 5.2062962950698267e-04 3.4711849797761439e-03  3.7535002458850646e-04 1.0691895965627483e-03 6.5096286164076584e-03  2.3794131411841732e-04 1.4688095879520089e-03 7.925137