<?xml version="1.0"?>
<VTKFile type="UnstructuredGrid"  version="0.1"  >
<UnstructuredGrid>
<Piece  NumberOfPoints="760" NumberOfCells="3024">
<Points>
<DataArray  type="Float64"  NumberOfComponents="3"  format="ascii">0 0 0  0.05555555555555555 0 0  0.1111111111111111 0 0  0.1666666666666667 0 0  0.2222222222222222 0 0  0.2777777777777778 0 0  0.3333333333333333 0 0  0.3888888888888889 0 0  0.4444444444444444 0 0  0.5 0 0  0.5555555555555556 0 0  0.6111111111111112 0 0  0.6666666666666666 0 0  0.7222222222222222 0 0  0.7777777777777778 0 0  0.8333333333333334 0 0  0.8888888888888888 0 0  0.9444444444444444 0 0  1 0 0  0 0.01428571428571429 0  0.05555555555555555 0.01428571428571429 0  0.1111111111111111 0.01428571428571429 0  0.1666666666666667 0.01428571428571429 0  0.2222222222222222 0.01428571428571429 0  0.2777777777777778 0.01428571428571429 0  0.3333333333333333 0.01428571428571429 0  0.3888888888888889 0.01428571428571429 0  0.4444444444444444 0.01428571428571429 0  0.5 0.01428571428571429 0  0.5555555555555556 0.01428571428571429 0  0.6111111111111112 0.01428571428571429 0  0.6666666666666666 0.01428571428571429 0  0.7222222222222222 0.01428571428571429 0  0.7777777777777778 0.01428571428571429 0  0.8333333333333334 0.01428571428571429 0  0.8888888888888888 0.01428571428571429 0  0.9444444444444444 0.01428571428571429 0  1 0.01428571428571429 0  0 0.02857142857142857 0  0.05555555555555555 0.02857142857142857 0  0.1111111111111111 0.02857142857142857 0  0.1666666666666667 0.02857142857142857 0  0.2222222222222222 0.02857142857142857 0  0.2777777777777778 0.02857142857142857 0  0.3333333333333333 0.02857142857142857 0  0.3888888888888889 0.02857142857142857 0  0.4444444444444444 0.02857142857142857 0  0.5 0.02857142857142857 0  0.5555555555555556 0.02857142857142857 0  0.6111111111111112 0.02857142857142857 0  0.6666666666666666 0.02857142857142857 0  0.7222222222222222 0.02857142857142857 0  0.7777777777777778 0.02857142857142857 0  0.8333333333333334 0.02857142857142857 0  0.8888888888888888 0.02857142857142857 0  0.9444444444444444 0.02857142857142857 0  1 0.02857142857142857 0  0 0.04285714285714286 0  0.05555555555555555 0.04285714285714286 0  0.1111111111111111 0.04285714285714286 0  0.1666666666666667 0.04285714285714286 0  0.2222222222222222 0.04285714285714286 0  0.2777777777777778 0.04285714285714286 0  0.3333333333333333 0.04285714285714286 0  0.3888888888888889 0.04285714285714286 0  0.4444444444444444 0.04285714285714286 0  0.5 0.04285714285714286 0  0.5555555555555556 0.04285714285714286 0  0.6111111111111112 0.04285714285714286 0  0.6666666666666666 0.04285714285714286 0  0.7222222222222222 0.04285714285714286 0  0.7777777777777778 0.04285714285714286 0  0.8333333333333334 0.04285714285714286 0  0.8888888888888888 0.04285714285714286 0  0.9444444444444444 0.04285714285714286 0  1 0.04285714285714286 0  0 0.05714285714285715 0  0.05555555555555555 0.05714285714285715 0  0.1111111111111111 0.05714285714285715 0  0.1666666666666667 0.05714285714285715 0  0.2222222222222222 0.05714285714285715 0  0.2777777777777778 0.05714285714285715 0  0.3333333333333333 0.05714285714285715 0  0.3888888888888889 0.05714285714285715 0  0.4444444444444444 0.05714285714285715 0  0.5 0.05714285714285715 0  0.5555555555555556 0.05714285714285715 0  0.6111111111111112 0.05714285714285715 0  0.6666666666666666 0.05714285714285715 0  0.7222222222222222 0.05714285714285715 0  0.7777777777777778 0.05714285714285715 0  0.8333333333333334 0.05714285714285715 0  0.8888888888888888 0.05714285714285715 0  0.9444444444444444 0.05714285714285715 0  1 0.05714285714285715 0  0 0.07142857142857142 0  0.05555555555555555 0.07142857142857142 0  0.1111111111111111 0.07142857142857142 0  0.1666666666666667 0.07142857142857142 0  0.2222222222222222 0.07142857142857142 0  0.2777777777777778 0.07142857142857142 0  0.3333333333333333 0.07142857142857142 0  0.3888888888888889 0.07142857142857142 0  0.4444444444444444 0.07142857142857142 0  0.5 0.07142857142857142 0  0.5555555555555556 0.07142857142857142 0  0.6111111111111112 0.07142857142857142 0  0.6666666666666666 0.07142857142857142 0  0.7222222222222222 0.07142857142857142 0  0.7777777777777778 0.07142857142857142 0  0.8333333333333334 0.07142857142857142 0  0.8888888888888888 0.07142857142857142 0  0.9444444444444444 0.07142857142857142 0  1 0.07142857142857142 0  0 0.08571428571428573 0  0.05555555555555555 0.08571428571428573 0  0.1111111111111111 0.08571428571428573 0  0.1666666666666667 0.08571428571428573 0  0.2222222222222222 0.08571428571428573 0  0.2777777777777778 0.08571428571428573 0  0.3333333333333333 0.08571428571428573 0  0.3888888888888889 0.08571428571428573 0  0.4444444444444444 0.08571428571428573 0  0.5 0.08571428571428573 0  0.5555555555555556 0.08571428571428573 0  0.6111111111111112 0.08571428571428573 0  0.6666666666666666 0.08571428571428573 0  0.7222222222222222 0.08571428571428573 0  0.7777777777777778 0.08571428571428573 0  0.8333333333333334 0.08571428571428573 0  0.8888888888888888 0.08571428571428573 0  0.9444444444444444 0.08571428571428573 0  1 0.08571428571428573 0  0 0.1 0  0.05555555555555555 0.1 0  0.1111111111111111 0.1 0  0.1666666666666667 0.1 0  0.2222222222222222 0.1 0  0.2777777777777778 0.1 0  0.3333333333333333 0.1 0  0.3888888888888889 0.1 0  0.4444444444444444 0.1 0  0.5 0.1 0  0.5555555555555556 0.1 0  0.6111111111111112 0.1 0  0.6666666666666666 0.1 0  0.7222222222222222 0.1 0  0.7777777777777778 0.1 0  0.8333333333333334 0.1 0  0.8888888888888888 0.1 0  0.9444444444444444 0.1 0  1 0.1 0  0 0 0.01  0.05555555555555555 0 0.01  0.1111111111111111 0 0.01  0.1666666666666667 0 0.01  0.2222222222222222 0 0.01  0.2777777777777778 0 0.01  0.3333333333333333 0 0.01  0.3888888888888889 0 0.01  0.4444444444444444 0 0.01  0.5 0 0.01  0.5555555555555556 0 0.01  0.6111111111111112 0 0.01  0.6666666666666666 0 0.01  0.7222222222222222 0 0.01  0.7777777777777778 0 0.01  0.8333333333333334 0 0.01  0.8888888888888888 0 0.01  0.9444444444444444 0 0.01  1 0 0.01  0 0.01428571428571429 0.01  0.05555555555555555 0.01428571428571429 0.01  0.1111111111111111 0.01428571428571429 0.01  0.1666666666666667 0.01428571428571429 0.01  0.2222222222222222 0.01428571428571429 0.01  0.2777777777777778 0.01428571428571429 0.01  0.3333333333333333 0.01428571428571429 0.01  0.3888888888888889 0.01428571428571429 0.01  0.4444444444444444 0.01428571428571429 0.01  0.5 0.01428571428571429 0.01  0.5555555555555556 0.01428571428571429 0.01  0.6111111111111112 0.01428571428571429 0.01  0.6666666666666666 0.01428571428571429 0.01  0.7222222222222222 0.01428571428571429 0.01  0.7777777777777778 0.01428571428571429 0.01  0.8333333333333334 0.01428571428571429 0.01  0.8888888888888888 0.01428571428571429 0.01  0.9444444444444444 0.01428571428571429 0.01  1 0.01428571428571429 0.01  0 0.02857142857142857 0.01  0.05555555555555555 0.02857142857142857 0.01  0.1111111111111111 0.02857142857142857 0.01  0.1666666666666667 0.02857142857142857 0.01  0.2222222222222222 0.02857142857142857 0.01  0.2777777777777778 0.02857142857142857 0.01  0.3333333333333333 0.02857142857142857 0.01  0.3888888888888889 0.02857142857142857 0.01  0.4444444444444444 0.02857142857142857 0.01  0.5 0.02857142857142857 0.01  0.5555555555555556 0.02857142857142857 0.01  0.6111111111111112 0.02857142857142857 0.01  0.6666666666666666 0.02857142857142857 0.01  0.7222222222222222 0.02857142857142857 0.01  0.7777777777777778 0.02857142857142857 0.01  0.8333333333333334 0.02857142857142857 0.01  0.8888888888888888 0.02857142857142857 0.01  0.9444444444444444 0.02857142857142857 0.01  1 0.02857142857142857 0.01  0 0.04285714285714286 0.01  0.05555555555555555 0.04285714285714286 0.01  0.1111111111111111 0.04285714285714286 0.01  0.1666666666666667 0.04285714285714286 0.01  0.2222222222222222 0.04285714285714286 0.01  0.2777777777777778 0.04285714285714286 0.01  0.3333333333333333 0.04285714285714286 0.01  0.3888888888888889 0.04285714285714286 0.01  0.4444444444444444 0.04285714285714286 0.01  0.5 0.04285714285714286 0.01  0.5555555555555556 0.04285714285714286 0.01  0.6111111111111112 0.04285714285714286 0.01  0.6666666666666666 0.04285714285714286 0.01  0.7222222222222222 0.04285714285714286 0.01  0.7777777777777778 0.04285714285714286 0.01  0.8333333333333334 0.04285714285714286 0.01  0.8888888888888888 0.04285714285714286 0.01  0.9444444444444444 0.04285714285714286 0.01  1 0.04285714285714286 0.01  0 0.05714285714285715 0.01  0.05555555555555555 0.05714285714285715 0.01  0.1111111111111111 0.05714285714285715 0.01  0.1666666666666667 0.05714285714285715 0.01  0.2222222222222222 0.05714285714285715 0.01  0.2777777777777778 0.05714285714285715 0.01  0.3333333333333333 0.05714285714285715 0.01  0.3888888888888889 0.05714285714285715 0.01  0.4444444444444444 0.05714285714285715 0.01  0.5 0.05714285714285715 0.01  0.5555555555555556 0.05714285714285715 0.01  0.6111111111111112 0.05714285714285715 0.01  0.6666666666666666 0.05714285714285715 0.01  0.7222222222222222 0.05714285714285715 0.01  0.7777777777777778 0.05714285714285715 0.01  0.8333333333333334 0.05714285714285715 0.01  0.8888888888888888 0.05714285714285715 0.01  0.9444444444444444 0.05714285714285715 0.01  1 0.05714285714285715 0.01  0 0.07142857142857142 0.01  0.05555555555555555 0.07142857142857142 0.01  0.1111111111111111 0.07142857142857142 0.01  0.1666666666666667 0.07142857142857142 0.01  0.2222222222222222 0.07142857142857142 0.01  0.2777777777777778 0.07142857142857142 0.01  0.3333333333333333 0.07142857142857142 0.01  0.3888888888888889 0.07142857142857142 0.01  0.4444444444444444 0.07142857142857142 0.01  0.5 0.07142857142857142 0.01  0.5555555555555556 0.07142857142857142 0.01  0.6111111111111112 0.07142857142857142 0.01  0.6666666666666666 0.07142857142857142 0.01  0.7222222222222222 0.07142857142857142 0.01  0.7777777777777778 0.07142857142857142 0.01  0.8333333333333334 0.07142857142857142 0.01  0.8888888888888888 0.07142857142857142 0.01  
[...]
<PointData  Vectors="f_36"> 
<DataArray  type="Float64"  Name="f_36"  NumberOfComponents="3" format="ascii">0.0000000000000000e+00 0.0000000000000000e+00 0.0000000000000000e+00  1.7650054371161046e-03 -3.5085282721303620e-03 8.4388422692021573e-03  1.7732857478339956e-03 -6.4060283543923508e-03 1.7389688204770579e-02  8.5338130332726582e-04 -8.0084066865691011e-03 2.3414389024017893e-02  -5.1053886399747605e-04 -7.7140799192392546e-03 2.3800899778173939e-02  -1.4861800755419192e-03 -5.8134681086669839e-03 1.8204377873191631e-02  -1.2997657254381280e-03 -3.7453976099072524e-03 1.0824041094556725e-02  -4.1053133591143138e-04 -2.8485809385821697e-03 7.5452155804663322e-03  -8.5908692841710115e-05 -2.7858547591756802e-03 8.1480870978423523e-03  -2.7127788342536064e-04 -2.4829975325688417e-03 7.5385016582609756e-03  -3.6289977147216200e-04 -1.8916993798910491e-03 5.8677772252412625e-03  -5.2523896719630409e-04 -1.1338268109424604e-03 4.0122843832838618e-03  -6.2062503225831362e-04 -1.9386449371515749e-04 1.0060559999703340e-03  -4.3446287620825053e-04 5.4596078174238996e-04 -1.4826097452053130e-03  -2.1360721583648721e-04 9.1976372638947958e-04 -2.6078203415083566e-03  -1.5561287920878405e-04 1.1085715894766518e-03 -3.0551563631470843e-03  -1.7379698113811518e-04 1.2929477720897043e-03 -3.5704702164358003e-03  -1.0982635139809479e-04 1.4656063345314895e-03 -4.1234539972577391e-03  -2.5509384307586356e-06 1.6027153900663206e-03 -4.3173862436904934e-03  0.0000000000000000e+00 0.0000000000000000e+00 0.0000000000000000e+00  1.7077019703954652e-03 -2.9988625240927637e-03 5.3071706035168016e-03  1.7453963858338800e-03 -5.7068432173035975e-03 1.1604421857408410e-02  9.0599194030475168e-04 -7.3296003381585016e-03 1.6106127308191089e-02  -3.8284923098044218e-04 -7.2247454348107051e-03 1.6701549414346029e-02  -1.3799096660272472e-03 -5.5553718213955904e-03 1.2843387210944015e-02  -1.3112706044690879e-03 -3.5948602367454280e-03 7.4008650539637826e-03  -4.6270867680719269e-04 -2.6667563542206681e-03 4.9351663851859478e-03  -5.0286351699882758e-05 -2.5859618490999088e-03 5.5671269340370130e-03  -2.3730587747259371e-04 -2.3381119062136379e-03 5.2648175842842770e-03  -3.5333671705332101e-04 -1.8116067974590943e-03 4.1148494057245575e-03  -4.8154594732648033e-04 -1.1274903077723782e-03 2.9286235896547239e-03  -5.9871309248468610e-04 -2.5805464517575014e-04 8.1475340735991174e-04  -4.3868234580536950e-04 4.5405773151145884e-04 -9.8761990606612221e-04  -2.1336385173490897e-04 8.2558436923362217e-04 -1.7685655323152636e-03  -1.4166493849455735e-04 1.0086262802405297e-03 -2.0399623005776736e-03  -1.6435844345897801e-04 1.1790705313851119e-03 -2.3876062708568227e-03  -1.2795253438732830e-04 1.3475936710993541e-03 -2.8083404212849621e-03  1.2569832056686799e-05 1.5238433060405395e-03 -3.0417718932173109e-03  0.0000000000000000e+00 0.0000000000000000e+00 0.0000000000000000e+00  1.0432864783952785e-03 -1.8442721077738605e-03 2.2688274291678694e-03  1.0950366017526806e-03 -3.6816560446688261e-03 5.3020710136477004e-03  5.9278099579378619e-04 -4.8938595068672283e-03 7.5914809474345668e-03  -1.9856863240108404e-04 -4.9508795530149577e-03 8.0398047014680930e-03  -8.3643725327712550e-04 -3.8644553889132477e-03 6.2383882544219038e-03  -8.3293185396340658e-04 -2.4683362432414194e-03 3.5045694112858109e-03  -3.1213439287913460e-04 -1.7671552943989801e-03 2.2233825822752565e-03  -1.9603556225102719e-05 -1.7280227004297954e-03 2.6186752861635967e-03  -1.3626120333851339e-04 -1.5977717768063341e-03 2.5373107298451054e-03  -2.2173234614446130e-04 -1.2606132418269585e-03 1.9889168949760029e-03  -2.9107210589875734e-04 -8.1874091367420626e-04 1.4730074987827620e-03  -3.7061305549318920e-04 -2.2677953642184312e-04 4.5787783735727643e-04  -2.7940700963840614e-04 2.7819610216968973e-04 -4.3880553506516016e-04  -1.3552153306733042e-04 5.4187155727619337e-04 -8.1445097976157242e-04  -8.5390285300742416e-05 6.6362433009303095e-04 -9.2664303377407262e-04  -1.0176648212411347e-04 7.7686592192066498e-04 -1.0873399157643269e-03  -9.5390771418367871e-05 8.9433662007996136e-04 -1.3048617666426398e-03  8.2402916181073229e-05 1.1008913285366199e-03 -1.4855965437201527e-03  0.0000000000000000e+00 0.0000000000000000e+00 0.0000000000000000e+00  1.0250224515578381e-06 -4.7549533588335677e-08 1.8350701523785430e-06  1.6583261758778489e-06 -1.0757570797062358e-07 5.8654747427134110e-06  1.9438840914414339e-06 -1.7208952376136376e-07 1.1112098534786714e-05  1.9533947496312807e-06 -2.2264103452076566e-07 1.6673042603097968e-05  1.7761888340315079e-06 -2.4851443153609962e-07 2.1899888607461083e-05  1.4899624915846530e-06 -2.4534860898365660e-07 2.6406049930094392e-05  1.1420463165544346e-06 -2.1371757841903372e-07 2.9989161264706467e-05  7.5659806850443805e-07 -1.5564712997618963e-07 3.2524298560922224e-05  3.5716136368930638e-07 -7.2419608277736535e-08 3.3930978679614768e-05  -2.8469253771539514e-08 3.4517906199506780e-08 3.4210410443848166e-05  -3.7649342105657622e-07 1.6208623397753937e-07 3.3442259787981975e-05  -6.6840286108022453e-07 3.0600402882583951e-07 3.1763184116481657e-05  -8.9382127355962176e-07 4.6179172604576579e-07 2.9357435246045667e-05  -1.0536961869459640e-06 6.2533217626364600e-07 2.6420926824209432e-05  -1.1562781354757568e-06 7.9351136128566666e-07 2.3129628369088088e-05  -1.2122834880330682e-06 9.6457785140505376e-07 1.9629629621234965e-05  -1.2343242124495773e-06 1.1381546965428509e-06 1.6035416166994910e-05  -1.2384937878446675e-06 1.3146892762400091e-06 1.2421861755912765e-05  0.0000000000000000e+00 0.0000000000000000e+00 0.0000000000000000e+00  9.6260743509498551e-07 -8.9070566867572786e-08 1.8170200077044857e-06  1.6350992377083863e-06 -1.2656776953975635e-07 5.8380868577870005e-06  1.9496548216733671e-06 -1.7263799449604565e-07 1.1078249568712809e-05  1.9756974170897519e-06 -2.1053693593380142e-07 1.6632287791053981e-05  1.8042723039950783e-06 -2.2965525401485105e-07 2.1853038486523795e-05  1.5173038227827194e-06 -2.2344418880779210e-07 2.6354733558504530e-05  1.1664287159004416e-06 -1.8994063206094874e-07 2.9934680475214647e-05  7.7681219483486775e-07 -1.3064167738437922e-07 3.2466809556944224e-05  3.7075104633280426e-07 -4.7795798281656019e-08 3.3870029477034711e-05  -2.3536382593285850e-08 5.7084158233047101e-08 3.4145871434678425e-05  -3.8121655781202108e-07 1.8136051766398156e-07 3.3374139119567574e-05  -6.8323446006701708e-07 3.2106979595557651e-07 3.1691367662445802e-05  -9.1795777397163548e-07 4.7251956777939955e-07 2.9281871243684473e-05  -1.0854167079829239e-06 6.3225719424117877e-07 2.6341648957766771e-05  -1.1938328495554573e-06 7.9731901273660644e-07 2.3046911365730671e-05  -1.2542068448453288e-06 9.6593055556431211e-07 1.9544193241717564e-05  -1.2791522685214473e-06 1.1378563420180172e-06 1.5948547194241260e-05  -1.2843111735784311e-06 1.3138149295839728e-06 1.2335240893940942e-05  0.0000000000000000e+00 0.0000000000000000e+00 0.0000000000000000e+00  1.1329194718652711e-03 2.0199830627879436e-03 3.2327856452446903e-03  1.0521490037026971e-03 3.9967650468162126e-03 6.5211637801876532e-03  4.7536027409088598e-04 5.3571961281833830e-03 8.6235533963492129e-03  -3.2099713042983588e-04 5.5244687299525795e-03 8.5887467787572700e-03  -8.6595049180764451e-04 4.4675795628931099e-03 6.3588378921870482e-03  -7.3539850773975514e-04 2.9749721207949363e-03 3.5945110598513282e-03  -2.0286738262469809e-04 2.1216308063673537e-03 2.5795896774253755e-03  -2.0600090406691799e-05 2.0261964396366752e-03 3.0611908797364452e-03  -1.5293211190901734e-04 1.8858825248006504e-03 2.7917487392947141e-03  -2.0305147505372779e-04 1.5135468135578172e-03 2.1443051275504684e-03  -2.8893977174649640e-04 1.0768120716673404e-03 1.6311257954554625e-03  -3.7047913154216535e-04 4.6440458167859182e-04 5.6340091145748797e-04  -3.0093513460804233e-04 -1.6068512958970313e-04 -4.3148002861842093e-04  -1.8821643732701485e-04 -5.9219857754630521e-04 -9.7673874137395333e-04  -1.5050995622201360e-04 -8.7369528836739850e-04 -1.2960834943899220e-03  -1.5568167017353178e-04 -1.1400833881901834e-03 -1.6916136823533403e-03  -9.7737928665665949e-05 -1.4157321762283312e-03 -2.0872341470647565e-03  9.0380293493016943e-05 -1.7100439988023100e-03 -2.1558066174707613e-03  0.0000000000000000e+00 0.0000000000000000e+00 0.0000000000000000e+00  1.8001829929703485e-03 2.6057702972301943e-03 6.3078604914648716e-03  1.7215322613989897e-03 5.3906410817324340e-03 1.2761232207431231e-02  8.1016173158125879e-04 7.3848058121307389e-03 1.6973910043426865e-02  -4.7074131856335988e-04 7.7800821300855706e-03 1.7090095993556344e-02  -1.3861603261589638e-03 6.4577955956424977e-03 1.2955003858079323e-02  -1.2280540335382125e-03 4.4105231095804866e-03 7.6165108625385093e-03  -3.5821507324155323e-04 3.1197386661563887e-03 5.3971994344380533e-03  -9.2864351472714997e-06 2.8920289489944347e-03 6.1147057245003042e-03  -2.3682081083547819e-04 2.6976491060505562e-03 5.6200421141746615e-03  -3.2807478675150962e-04 2.1885981181878305e-03 4.3266697586233178e-03  -4.4637545499468461e-04 1.5765760660797299e-03 3.2564177914687596e-03  -5.9446110238781341e-04 7.3501158211192695e-04 1.1954640069897023e-03  -4.9261341298620874e-04 -1.4680517017438431e-04 -7.8612669219576409e-04  -3.0533060267052739e-04 -7.8021349906058006e-04 -1.9315725236334722e-03  -2.3535618706539330e-04 -1.1970089451303974e-03 -2.6139127247289591e-03  -2.4029772427332447e-04 -1.5794061622166991e-03 -3.3956286449346390e-03  -1.5485733517570715e-04 -1.9829020166929746e-03 -4.1738870522276990e-03  5.1614808438919228e-06 -2.4392025586036240e-03 -4.3721432841341548e-03  0.0000000000000000e+00 0.0000000000000000e+00 0.0000000000000000e+00  1.8433905102918510e-03 2.5431472792099038e-03 8.6230189073173823e-03  1.8489582331959462e-03 5.5447567266292686e-03 1.7530671842740920e-02  9.5532959818748532e-04 7.7596418357378707e-03 2.3487297735949274e-02  -3.7084382121363495e-04 8.3202391323725557e-03 2.3936298290485145e-02  -1.4113772068444477e-03 7.0309966167783960e-03 1.8617419753032046e-02  -1.3652836314775563e-03 4.8725516885504061e-03 1.1439338569417222e-02  -4.4040759778539700e-04 3.4278192404549068e-03 8.0697093005093548e-03  4.3235206801674034e-05 3.1243452583855883e-03 8.6581260030683151e-03  -2.1537953591358079e-04 2.9152409281044582e-03 8.0009267692002506e-03  -3.3726674403832099e-04 2.3868248321379927e-03 6.2186620648195853e-03  -4.2124653884463781e-04 1.7454468809184457e-03 4.6360140188275315e-03  -6.1011382620787546e-04 8.5895356171296464e-04 1.8344831543184892e-03  -5.2802411937756543e-04 -8.7019203699972120e-05 -9.3605757453639710e-04  -3.2112295076944957e-04 -7.8283627162229277e-04 -2.6365563150405301e-03  -2.3117550683851443e-04 -1.2429664337631600e-03 -3.6783353137632806e-03  -2.3541877265578849e-04 -1.6591508829308756e-03 -4.7830021393164166e-03  -1.4126224934052876e-04 -2.0950789898316799e-03 -5.8767350614512080e-03  2.1626005602279867e-06 -2.6111609452446603e-03 -6.3243306447705603e-03  0.0000000000000000e+00 0.0000000000000000e+00 0.0000000000000000e+00  7.1318436154371083e-04 -1.3770879910077912e-03 8.1526281878308814e-03  8.1433336997783384e-04 -2.6955258009637084e-03 1.7116484901783961e-02  4.5741324768569991e-04 -3.4625239792676283e-03 2.3193801118160034e-02  -1.3177104618852852e-04 -3.3992270499420131e-03 2.3678056215226086e-02  -6.1477636187352955e-04 -2.5846096206908870e-03 1.8158768739288202e-02  -6.2692291197446570e-04 -1.6373074272345196e-03 1.0770734315050675e-02  -2.6747237173246902e-04 -1.2081158136708844e-03 7.4464733171684941e-03  -7.3704645712528827e-05 -1.1993488456090375e-03 8.0626144765292267e-03  -1.1722372348848392e-04 -1.0921176836884538e-03 7.4939473909347003e-03  -1.3974592635082581e-04 -8.3713067595668424e-04 5.8438205453987587e-03  -1.9761862736821447e-04 -5.1721121886244548e-04 4.0214323248629674e-03  -2.6267894666254899e-04 -1.1329291452280797e-04 1.0397626146885174e-03  -2.0722770969290206e-04 2.1880419059554953e-04 -1.4521708061425134e-03  -1.1292707679302022e-04 3.8510969259580044e-04 -2.5790139647792211e-03  -8.6720462679569038e-05 4.6243654414629604e-04 -3.0182247533374262e-03  -9.7364147873633950e-05 5.4436668498830361e-04 -3.5261546084275550e-03  -5.5387305384497756e-05 6.4390295382141163e-04 -4.0780373629231087e-03  2.7655641682645369e-05 7.6281230065263785e-04 -4.2729961414145349e-03  0.0000000000000000e+00 0.0000000000000000e+00 0.0000000000000000e+00  7.7459556610820490e-04 -1.2116256867313728e-03 5.1017178864637960e-03  8.6226958163227189e-04 -2.3598741258348695e-03 1.1393037726079122e-02  4.8997372079816887e-04 -3.0644940961569627e-03 1.5917056212960457e-02  -1.1763730640530339e-04 -3.0454812596630199e-03 1.6572785445540084e-02  -6.2780105473404227e-04 -2.3545402640080524e-03 1.2767164463725861e-02  -6.6294283315872552e-04 -1.5182863174553359e-03 7.3177983113781857e-03  -2.8987243623779929e-04 -1.1122322378167703e-03 4.8210517008425288e-03  -5.8584095466270333e-05 -1.0821438110638459e-03 5.4756478202994171e-03  -1.1291275362914930e-04 -9.8834664389889403e-04 5.2147100993527960e-03  -1.5559233847670364e-04 -7.6526698851312955e-04 4.0792898306947671e-03  -2.0536789334819948e-04 -4.7908742867667977e-04 2.9201716745548495e-03  -2.7417521308129256e-04 -1.2017812403782381e-04 8.2999910912823856e-04  -2.2054446018386596e-04 1.8033896305425006e-04 -9.7244725757334469e-04  -1.1727912263802853e-04 3.3806990341068852e-04 -1.7500996303890953e-03  -8.3064218805814345e-05 4.1318505132359771e-04 -2.0100889863709083e-03  -9.7720553400881997e-05 4.8554133671282925e-04 -2.3487888994150230e-03  -7.5034198471323117e-05 5.7002757999384741e-04 -2.7685355343099369e-03  2.4547772728140092e-05 6.9181904267116921e-04 -3.0129282321814427e-03  0.0000000000000000e+00 0.0000000000000000e+00 0.0000000000000000e+00  5.1164143597089899e-04 -7.3948874140508756e-04 2.0241707781906131e-03  5.6908212432916344e-04 -1.4477631758964041e-03 4.9301358281930770e-03  3.2764611639088121e-04 -1.9091327526258623e-03 7.1518957095576428e-03  -6.7522389130888423e-05 -1.9245591809240055e-03 7.6254332986732537e-03  -4.0447349587947640e-04 -1.5090065111222225e-03 5.9090380634279089e-03  -4.3749297329043468e-04 -9.8108733977709216e-04 3.2456754995858674e-03  -1.9565698892977322e-04 -7.1071320677505896e-04 1.9954890276196150e-03  -3.1452407961284407e-05 -6.8405377964983667e-04 2.4269651526429253e-03  -6.8616602590777700e-05 -6.2801119686770870e-04 2.3905626045704733e-03  -1.0607645969542743e-04 -4.9205744137675444e-04 1.8745667079050415e-03  -1.3456480955853479e-04 -3.1419484314513277e-04 1.4063137233174092e-03  -1.7875160028067450e-04 -8.7726361271554861e-05 4.4445991464232040e-04  -1.4624017815067798e-04 1.0504987813889330e-04 -4.1914789376263343e-04  -7.7015552440994067e-05 2.0913150598605824e-04 -7.7047753936717190e-04  -5.1765779022023522e-05 2.5908842827071494e-04 -8.6175165263712231e-04  -6.2874962350694760e-05 3.0464671246789571e-04 -1.0070976331925264e-03  -5.9353028395173575e-05 3.5373850605877131e-04 -1.2165219146241697e-03  5.3350202410808169e-05 4.5217120906988084e-04 -1.3976241198643325e-03  0.0000000000000000e+00 0.0000000000000000e+00 0.0000000000000000e+00  4.8859993547138818e-07 -3.6229994372696269e-08 1.7949258899655917e-06  8.2444510779609560e-07 -9.0035558204016883e-08 5.8406457217501618e-06  9.8082483620906391e-07 -1.4666301089852665e-07 1.1101181371449095e-05  9.9647326689955229e-07 -1.9046143020052211e-07 1.6673112311485966e-05  9.1549901625693621e-07 -2.1137069791329295e-07 2.1907438016204476e-05  7.7734143133596302e-07 -2.0504132899569961e-07 2.6418099686901956e-05  6.0704943373856819e-07 -1.7112923720862446e-07 3.0003817910965980e-05  4.1738856117121736e-07 -1.1079674048529798e-07 3.2540427723015829e-05  2.1972713430348741e-07 -2.5300408861829322e-08 3.3947496807121977e-05  2.7723141731983349e-08 8.3681830966278510e-08 3.4226188603343223e-05  -1.4662496792449392e-07 2.1308603631617194e-07 3.3456358070216909e-05  -2.9398753927597447e-07 3.5872930185790985e-07 3.1774891109610565e-05  -4.0875943579885512e-07 5.1629746164837898e-07 2.9366397205455443e-05  -4.9088527104214483e-07 6.8176171640210244e-07 2.6427227627149371e-05  -5.4421613016970504e-07 8.5182957866182472e-07 2.3133628530427483e-05  -5.7397761958343847e-07 1.0243926201480065e-06 1.9631809927157187e-05  -5.8625467940137665e-07 1.1987208903455514e-06 1.6036364234825383e-05  -5.8873411303994369e-07 1.3750243471242700e-06 1.2422568156482365e-05  0.0000000000000000e+00 0.0000000000000000e+00 0.0000000000000000e+00  4.7649873822529402e-07 -7.0824420768252995e-08 1.7648870761928101e-06  8.2925544242358009e-07 -1.0604671802186068e-07 5.8070795540666979e-06  9.9197295956916998e-07 -1.5036441419513903e-07 1.1062937458723966e-05  1.0084355262441095e-06 -1.8545775771663531e-07 1.6629681593235773e-05  9.2414000505484086e-07 -2.0119372847195044e-07 2.1859381082910347e-05  7.8048015842182326e-07 -1.9220168918268894e-07 2.6366553166193042e-05  6.0416347207909512e-07 -1.5678218761427443e-07 2.9949610869510372e-05  4.0844308622770834e-07 -9.5564672411192075e-08 3.2483566230299370e-05  2.0442388832945701e-07 -1.0120973054210666e-08 3.3887562935217541e-05  5.9970457956941936e-09 9.7781782660257006e-08 3.4162961077128684e-05  -1.7434260200148117e-07 2.2530415106087447e-07 3.3389726875079280e-05  -3.2700449210908285e-07 3.6848422234066923e-07 3.1704646758175722e-05  -4.4607938730467371e-07 5.2341938678290859e-07 2.9292325316602348e-05  -5.3134868047948246e-07 6.8649314727023986e-07 2.6349234913843696e-05  -5.8682301061927529e-07 8.5458180863160559e-07 2.3051945054577248e-05  -6.1804928981128828e-07 1.0256030756799117e-06 1.9547139047949117e-05  -6.3134920650000649e-07 1.1988790814191813e-06 1.5949947181134316e-05  -6.3433165638804121e-07 1.3747066499180808e-06 1.2335863040975021e-05  0.0000000000000000e+00 0.0000000000000000e+00 0.0000000000000000e+00  5.7171470189597035e-04 7.1883666924417260e-04 2.8851435766704204e-03  5.7495748675345315e-04 1.4028977975960046e-03 5.8270376168866973e-03  3.0305604172094469e-04 1.8922933893843431e-03 7.6551529457245526e-03  -1.0506516382168071e-04 1.9676408284562989e-03 7.5396821368209311e-03  -4.2244868953194474e-04 1.6089666874042590e-03 5.4429410500250793e-03  -4.1179960587661826e-04 1.0843056629703460e-03 2.9150841153609201e-03  -1.4837408384916576e-04 7.7185739825675920e-04 2.0828044688795183e-03  -1.2222289460244401e-05 7.2868099586351632e-04 2.6444095166010908e-03  -6.4517152135645789e-05 6.7912796236709494e-04 2.4162711741578073e-03  -9.5570506866585794e-05 5.4727181537792338e-04 1.8264428456633015e-03  -1.3267797288633339e-04 3.8994248514878275e-04 1.4013413679400087e-03  -1.8261023833954777e-04 1.7250016233081735e-04 4.4586747453738120e-04  -1.6021055658282300e-04 -4.9376275343232416e-05 -4.3392815107866936e-04  -1.0227427606332117e-04 -2.0330263336607192e-04 -8.8504113200475699e-04  -7.7462339816313907e-05 -3.0436303324183158e-04 -1.1360686545500416e-03  -8.1947492883967344e-05 -4.0275892247258575e-04 -1.4749159377450830e-03  -6.1538299756261716e-05 -5.1433669330427836e-04 -1.8162939391840667e-03  7.1016635930851434e-05 -6.3516358191618527e-04 -1.7907308444933142e-03  0.0000000000000000e+00 0.0000000000000000e+00 0.0000000000000000e+00  8.2674018647177299e-04 1.1412098248157765e-03 6.0970036787233008e-03  8.7698114625467209e-04 2.3959286230508864e-03 1.2465153129874864e-02  4.7261517224628545e-04 3.3208615873801138e-03 1.6579030151174047e-02  -1.4192836396845044e-04 3.5362714046588283e-03 1.6660232749108810e-02  -6.3329889517995395e-04 2.9674696205607577e-03 1.2554483227494643e-02  -6.3350627422933839e-04 2.0448415033768961e-03 7.2705726913895805e-03  -2.3058127870719916e-04 1.4416650548971705e-03 5.1102407961431283e-03  -6.9134383314081005e-06 1.3230496006275097e-03 5.8973153343088482e-03  -8.9033981567564777e-05 1.2357104701631943e-03 5.4494690378335516e-03  -1.3703960752629949e-04 1.0092728531392898e-03 4.1762966550434391e-03  -1.8595592487208966e-04 7.3213513927020992e-04 3.1490348813599791e-03  -2.6779043442383811e-04 3.5109335743219736e-04 1.140324333