<?xml version="1.0"?>
<VTKFile type="UnstructuredGrid"  version="0.1"  >
<UnstructuredGrid>
<Piece  NumberOfPoints="760" NumberOfCells="3024">
<Points>
<DataArray  type="Float64"  NumberOfComponents="3"  format="ascii">0 0 0  0.05555555555555555 0 0  0.1111111111111111 0 0  0.1666666666666667 0 0  0.2222222222222222 0 0  0.2777777777777778 0 0  0.3333333333333333 0 0  0.3888888888888889 0 0  0.4444444444444444 0 0  0.5 0 0  0.5555555555555556 0 0  0.6111111111111112 0 0  0.6666666666666666 0 0  0.7222222222222222 0 0  0.7777777777777778 0 0  0.8333333333333334 0 0  0.8888888888888888 0 0  0.9444444444444444 0 0  1 0 0  0 0.01428571428571429 0  0.05555555555555555 0.01428571428571429 0  0.1111111111111111 0.01428571428571429 0  0.1666666666666667 0.01428571428571429 0  0.2222222222222222 0.01428571428571429 0  0.2777777777777778 0.01428571428571429 0  0.3333333333333333 0.01428571428571429 0  0.3888888888888889 0.01428571428571429 0  0.4444444444444444 0.01428571428571429 0  0.5 0.01428571428571429 0  0.5555555555555556 0.01428571428571429 0  0.6111111111111112 0.01428571428571429 0  0.6666666666666666 0.01428571428571429 0  0.7222222222222222 0.01428571428571429 0  0.7777777777777778 0.01428571428571429 0  0.8333333333333334 0.01428571428571429 0  0.8888888888888888 0.01428571428571429 0  0.9444444444444444 0.01428571428571429 0  1 0.01428571428571429 0  0 0.02857142857142857 0  0.05555555555555555 0.02857142857142857 0  0.1111111111111111 0.02857142857142857 0  0.1666666666666667 0.02857142857142857 0  0.2222222222222222 0.02857142857142857 0  0.2777777777777778 0.02857142857142857 0  0.3333333333333333 0.02857142857142857 0  0.3888888888888889 0.02857142857142857 0  0.4444444444444444 0.02857142857142857 0  0.5 0.02857142857142857 0  0.5555555555555556 0.02857142857142857 0  0.6111111111111112 0.02857142857142857 0  0.6666666666666666 0.02857142857142857 0  0.7222222222222222 0.02857142857142857 0  0.7777777777777778 0.02857142857142857 0  0.8333333333333334 0.02857142857142857 0  0.8888888888888888 0.02857142857142857 0  0.9444444444444444 0.02857142857142857 0  1 0.02857142857142857 0  0 0.04285714285714286 0  0.05555555555555555 0.04285714285714286 0  0.1111111111111111 0.04285714285714286 0  0.1666666666666667 0.04285714285714286 0  0.2222222222222222 0.04285714285714286 0  0.2777777777777778 0.04285714285714286 0  0.3333333333333333 0.04285714285714286 0  0.3888888888888889 0.04285714285714286 0  0.4444444444444444 0.04285714285714286 0  0.5 0.04285714285714286 0  0.5555555555555556 0.04285714285714286 0  0.6111111111111112 0.04285714285714286 0  0.6666666666666666 0.04285714285714286 0  0.7222222222222222 0.04285714285714286 0  0.7777777777777778 0.04285714285714286 0  0.8333333333333334 0.04285714285714286 0  0.8888888888888888 0.04285714285714286 0  0.9444444444444444 0.04285714285714286 0  1 0.04285714285714286 0  0 0.05714285714285715 0  0.05555555555555555 0.05714285714285715 0  0.1111111111111111 0.05714285714285715 0  0.1666666666666667 0.05714285714285715 0  0.2222222222222222 0.05714285714285715 0  0.2777777777777778 0.05714285714285715 0  0.3333333333333333 0.05714285714285715 0  0.3888888888888889 0.05714285714285715 0  0.4444444444444444 0.05714285714285715 0  0.5 0.05714285714285715 0  0.5555555555555556 0.05714285714285715 0  0.6111111111111112 0.05714285714285715 0  0.6666666666666666 0.05714285714285715 0  0.7222222222222222 0.05714285714285715 0  0.7777777777777778 0.05714285714285715 0  0.8333333333333334 0.05714285714285715 0  0.8888888888888888 0.05714285714285715 0  0.9444444444444444 0.05714285714285715 0  1 0.05714285714285715 0  0 0.07142857142857142 0  0.05555555555555555 0.07142857142857142 0  0.1111111111111111 0.07142857142857142 0  0.1666666666666667 0.07142857142857142 0  0.2222222222222222 0.07142857142857142 0  0.2777777777777778 0.07142857142857142 0  0.3333333333333333 0.07142857142857142 0  0.3888888888888889 0.07142857142857142 0  0.4444444444444444 0.07142857142857142 0  0.5 0.07142857142857142 0  0.5555555555555556 0.07142857142857142 0  0.6111111111111112 0.07142857142857142 0  0.6666666666666666 0.07142857142857142 0  0.7222222222222222 0.07142857142857142 0  0.7777777777777778 0.07142857142857142 0  0.8333333333333334 0.07142857142857142 0  0.8888888888888888 0.07142857142857142 0  0.9444444444444444 0.07142857142857142 0  1 0.07142857142857142 0  0 0.08571428571428573 0  0.05555555555555555 0.08571428571428573 0  0.1111111111111111 0.08571428571428573 0  0.1666666666666667 0.08571428571428573 0  0.2222222222222222 0.08571428571428573 0  0.2777777777777778 0.08571428571428573 0  0.3333333333333333 0.08571428571428573 0  0.3888888888888889 0.08571428571428573 0  0.4444444444444444 0.08571428571428573 0  0.5 0.08571428571428573 0  0.5555555555555556 0.08571428571428573 0  0.6111111111111112 0.08571428571428573 0  0.6666666666666666 0.08571428571428573 0  0.7222222222222222 0.08571428571428573 0  0.7777777777777778 0.08571428571428573 0  0.8333333333333334 0.08571428571428573 0  0.8888888888888888 0.08571428571428573 0  0.9444444444444444 0.08571428571428573 0  1 0.08571428571428573 0  0 0.1 0  0.05555555555555555 0.1 0  0.1111111111111111 0.1 0  0.1666666666666667 0.1 0  0.2222222222222222 0.1 0  0.2777777777777778 0.1 0  0.3333333333333333 0.1 0  0.3888888888888889 0.1 0  0.4444444444444444 0.1 0  0.5 0.1 0  0.5555555555555556 0.1 0  0.6111111111111112 0.1 0  0.6666666666666666 0.1 0  0.7222222222222222 0.1 0  0.7777777777777778 0.1 0  0.8333333333333334 0.1 0  0.8888888888888888 0.1 0  0.9444444444444444 0.1 0  1 0.1 0  0 0 0.01  0.05555555555555555 0 0.01  0.1111111111111111 0 0.01  0.1666666666666667 0 0.01  0.2222222222222222 0 0.01  0.2777777777777778 0 0.01  0.3333333333333333 0 0.01  0.3888888888888889 0 0.01  0.4444444444444444 0 0.01  0.5 0 0.01  0.5555555555555556 0 0.01  0.6111111111111112 0 0.01  0.6666666666666666 0 0.01  0.7222222222222222 0 0.01  0.7777777777777778 0 0.01  0.8333333333333334 0 0.01  0.8888888888888888 0 0.01  0.9444444444444444 0 0.01  1 0 0.01  0 0.01428571428571429 0.01  0.05555555555555555 0.01428571428571429 0.01  0.1111111111111111 0.01428571428571429 0.01  0.1666666666666667 0.01428571428571429 0.01  0.2222222222222222 0.01428571428571429 0.01  0.2777777777777778 0.01428571428571429 0.01  0.3333333333333333 0.01428571428571429 0.01  0.3888888888888889 0.01428571428571429 0.01  0.4444444444444444 0.01428571428571429 0.01  0.5 0.01428571428571429 0.01  0.5555555555555556 0.01428571428571429 0.01  0.6111111111111112 0.01428571428571429 0.01  0.6666666666666666 0.01428571428571429 0.01  0.7222222222222222 0.01428571428571429 0.01  0.7777777777777778 0.01428571428571429 0.01  0.8333333333333334 0.01428571428571429 0.01  0.8888888888888888 0.01428571428571429 0.01  0.9444444444444444 0.01428571428571429 0.01  1 0.01428571428571429 0.01  0 0.02857142857142857 0.01  0.05555555555555555 0.02857142857142857 0.01  0.1111111111111111 0.02857142857142857 0.01  0.1666666666666667 0.02857142857142857 0.01  0.2222222222222222 0.02857142857142857 0.01  0.2777777777777778 0.02857142857142857 0.01  0.3333333333333333 0.02857142857142857 0.01  0.3888888888888889 0.02857142857142857 0.01  0.4444444444444444 0.02857142857142857 0.01  0.5 0.02857142857142857 0.01  0.5555555555555556 0.02857142857142857 0.01  0.6111111111111112 0.02857142857142857 0.01  0.6666666666666666 0.02857142857142857 0.01  0.7222222222222222 0.02857142857142857 0.01  0.7777777777777778 0.02857142857142857 0.01  0.8333333333333334 0.02857142857142857 0.01  0.8888888888888888 0.02857142857142857 0.01  0.9444444444444444 0.02857142857142857 0.01  1 0.02857142857142857 0.01  0 0.04285714285714286 0.01  0.05555555555555555 0.04285714285714286 0.01  0.1111111111111111 0.04285714285714286 0.01  0.1666666666666667 0.04285714285714286 0.01  0.2222222222222222 0.04285714285714286 0.01  0.2777777777777778 0.04285714285714286 0.01  0.3333333333333333 0.04285714285714286 0.01  0.3888888888888889 0.04285714285714286 0.01  0.4444444444444444 0.04285714285714286 0.01  0.5 0.04285714285714286 0.01  0.5555555555555556 0.04285714285714286 0.01  0.6111111111111112 0.04285714285714286 0.01  0.6666666666666666 0.04285714285714286 0.01  0.7222222222222222 0.04285714285714286 0.01  0.7777777777777778 0.04285714285714286 0.01  0.8333333333333334 0.04285714285714286 0.01  0.8888888888888888 0.04285714285714286 0.01  0.9444444444444444 0.04285714285714286 0.01  1 0.04285714285714286 0.01  0 0.05714285714285715 0.01  0.05555555555555555 0.05714285714285715 0.01  0.1111111111111111 0.05714285714285715 0.01  0.1666666666666667 0.05714285714285715 0.01  0.2222222222222222 0.05714285714285715 0.01  0.2777777777777778 0.05714285714285715 0.01  0.3333333333333333 0.05714285714285715 0.01  0.3888888888888889 0.05714285714285715 0.01  0.4444444444444444 0.05714285714285715 0.01  0.5 0.05714285714285715 0.01  0.5555555555555556 0.05714285714285715 0.01  0.6111111111111112 0.05714285714285715 0.01  0.6666666666666666 0.05714285714285715 0.01  0.7222222222222222 0.05714285714285715 0.01  0.7777777777777778 0.05714285714285715 0.01  0.8333333333333334 0.05714285714285715 0.01  0.8888888888888888 0.05714285714285715 0.01  0.9444444444444444 0.05714285714285715 0.01  1 0.05714285714285715 0.01  0 0.07142857142857142 0.01  0.05555555555555555 0.07142857142857142 0.01  0.1111111111111111 0.07142857142857142 0.01  0.1666666666666667 0.07142857142857142 0.01  0.2222222222222222 0.07142857142857142 0.01  0.2777777777777778 0.07142857142857142 0.01  0.3333333333333333 0.07142857142857142 0.01  0.3888888888888889 0.07142857142857142 0.01  0.4444444444444444 0.07142857142857142 0.01  0.5 0.07142857142857142 0.01  0.5555555555555556 0.07142857142857142 0.01  0.6111111111111112 0.07142857142857142 0.01  0.6666666666666666 0.07142857142857142 0.01  0.7222222222222222 0.07142857142857142 0.01  0.7777777777777778 0.07142857142857142 0.01  0.8333333333333334 0.07142857142857142 0.01  0.8888888888888888 0.07142857142857142 0.01  
[...]
<PointData  Vectors="f_36"> 
<DataArray  type="Float64"  Name="f_36"  NumberOfComponents="3" format="ascii">0.0000000000000000e+00 0.0000000000000000e+00 0.0000000000000000e+00  1.0892330581237356e-03 -2.0385689029452951e-03 4.2594304083552461e-03  1.7022619062457640e-03 -4.4938101042157228e-03 1.0665784035100221e-02  2.0960256623417306e-03 -7.4485171383830845e-03 1.9100466939516326e-02  2.0541308101948807e-03 -1.0438038404284943e-02 2.8462082791476179e-02  1.3000675925367525e-03 -1.2556820107643009e-02 3.6133121952149204e-02  9.1099657218390092e-05 -1.3005481920697568e-02 3.8679499464297391e-02  -5.4664265902505064e-04 -1.2155439604981430e-02 3.5904198832489471e-02  -1.4482360259373167e-04 -1.1474924533011875e-02 3.3179006234849928e-02  2.8997327670653476e-04 -1.1619243291279413e-02 3.4198426963937767e-02  1.1436937889486491e-04 -1.1831099290575894e-02 3.5662662518597114e-02  1.7676414303134580e-05 -1.1784359088844436e-02 3.5438983093096739e-02  2.8612573356057998e-04 -1.1996826357425475e-02 3.6071936542431550e-02  4.1036869939992110e-04 -1.2519689821111731e-02 3.8196963012271767e-02  2.6923317190357608e-04 -1.2952946328083021e-02 4.0008940501629738e-02  1.2088978921462760e-04 -1.3186415848494526e-02 4.1060729424050368e-02  -4.3602176631338184e-05 -1.3319936914575494e-02 4.1913225563670338e-02  -5.6773802838981007e-04 -1.3446358822859961e-02 4.2608700084169268e-02  -1.3477450739336661e-03 -1.4204432347919396e-02 4.2200721555178358e-02  0.0000000000000000e+00 0.0000000000000000e+00 0.0000000000000000e+00  1.0291052404992783e-03 -1.6933979019069796e-03 2.4792836331961375e-03  1.6008195514524298e-03 -3.8809764711185174e-03 6.6924209854411819e-03  1.9877533557377371e-03 -6.5765246076343225e-03 1.2453775859501392e-02  1.9889731988061818e-03 -9.3758111373423610e-03 1.9075911086718807e-02  1.3324775730905302e-03 -1.1455375098705280e-02 2.4765060432522731e-02  1.9027823284446842e-04 -1.2017112383171305e-02 2.6879332026807614e-02  -5.1871032924295064e-04 -1.1290783950492312e-02 2.4924422328379877e-02  -2.1145878944585345e-04 -1.0614229420671459e-02 2.2842649755900592e-02  2.7648867846051517e-04 -1.0707902250036783e-02 2.3700495840600713e-02  1.6371979514581881e-04 -1.0922799723116990e-02 2.4994352339966140e-02  1.7746273998472856e-05 -1.0885616063285234e-02 2.4864968170646002e-02  2.5547218299825167e-04 -1.1056374650287039e-02 2.5306230859043988e-02  4.1430691078462006e-04 -1.1533806431811622e-02 2.6948775922126456e-02  2.9314902017135068e-04 -1.1954321339037628e-02 2.8384754857468299e-02  1.4479582235940358e-04 -1.2189802959260657e-02 2.9238497844963969e-02  3.1767977103148984e-05 -1.2327280403860370e-02 2.9986158291327319e-02  -2.9116458915544725e-04 -1.2478373688645631e-02 3.0745857520106463e-02  -1.3732724265594822e-03 -1.3569626023150691e-02 3.1140362619741641e-02  0.0000000000000000e+00 0.0000000000000000e+00 0.0000000000000000e+00  6.2781195539610851e-04 -9.8150288784966812e-04 9.8896061454204821e-04  9.9206458932302199e-04 -2.3657302293232027e-03 2.9229373871938850e-03  1.2432474430969247e-03 -4.1481438443981113e-03 5.6675667383196248e-03  1.2643036959946576e-03 -6.0717765448742925e-03 8.9336681094910383e-03  8.8519885119828115e-04 -7.5841231311027909e-03 1.1889169170632508e-02  1.8902979176638193e-04 -8.0750127421157225e-03 1.3167982943153383e-02  -2.7989709857226209e-04 -7.5999081944633619e-03 1.2347107034954220e-02  -1.1747552123193145e-04 -7.0881655275850004e-03 1.1373263391275569e-02  2.1090933342825282e-04 -7.1442211557696438e-03 1.1961893367428323e-02  1.6639476347878661e-04 -7.3266371216127359e-03 1.2845156931343527e-02  5.8723153008472686e-05 -7.3026302728840748e-03 1.2935918186324365e-02  1.9714959005495412e-04 -7.3994814543812213e-03 1.3276744765732883e-02  3.1100732585510670e-04 -7.7330420158663263e-03 1.4272638927509754e-02  2.4345661098281439e-04 -8.0439020563754897e-03 1.5183234370720671e-02  1.5050430672980411e-04 -8.2243469779343954e-03 1.5789575684814709e-02  9.7010915074713548e-05 -8.3443849808397461e-03 1.6357756796603180e-02  2.3283725904754699e-05 -8.4452860672216707e-03 1.6983429227907753e-02  -1.4845008734610124e-03 -9.9196519522668971e-03 1.7814188338797696e-02  0.0000000000000000e+00 0.0000000000000000e+00 0.0000000000000000e+00  1.9162083738065619e-05 -1.6500913699655642e-06 2.8445519788162137e-05  3.6500923043167365e-05 -5.2569305970339715e-06 1.0692284397214817e-04  5.2023672097520663e-05 -1.0787228613372933e-05 2.3176781359106403e-04  6.5711697911097710e-05 -1.7999120471651557e-05 3.9773081683552912e-04  7.7639760933949863e-05 -2.6694215504303742e-05 5.9970812182191997e-04  8.7920200878402710e-05 -3.6680843363849176e-05 8.3286713040274941e-04  9.6685641463272135e-05 -4.7779265279485720e-05 1.0927417652861877e-03  1.0406425403857235e-04 -5.9824038936248460e-05 1.3752596432513775e-03  1.1016737877526962e-04 -7.2663270771269344e-05 1.6766845800900521e-03  1.1510286277492509e-04 -8.6156358990881231e-05 1.9935654938941227e-03  1.1898755221638517e-04 -1.0017384520917476e-04 2.3227652833332528e-03  1.2194071630497288e-04 -1.1459936258781534e-04 2.6614923393549835e-03  1.2407951895800954e-04 -1.2933032845022715e-04 3.0072842805360933e-03  1.2552599700627154e-04 -1.4427749832088898e-04 3.3580065448717972e-03  1.2641063634056447e-04 -1.5936598948572373e-04 3.7118820999223665e-03  1.2686930550570593e-04 -1.7453707750919004e-04 4.0675133200288724e-03  1.2704171772937115e-04 -1.8974916353244414e-04 4.4238906531988359e-03  1.2707299693979582e-04 -2.0497913942115216e-04 4.7804084634622025e-03  0.0000000000000000e+00 0.0000000000000000e+00 0.0000000000000000e+00  1.8095392820705887e-05 -2.6863430000289589e-06 2.8147618855217637e-05  3.6119538623197880e-05 -6.1941479590566391e-06 1.0649251301221540e-04  5.2283832685663823e-05 -1.1619757413910267e-05 2.3128332139977356e-04  6.6551758306007485e-05 -1.8725490349341915e-05 3.9719760764058098e-04  7.8999572535498415e-05 -2.7320363910841985e-05 5.9913040976421487e-04  8.9739401493798456e-05 -3.7215099503262369e-05 8.3224911530529848e-04  9.8906567951071906e-05 -4.8230236742044165e-05 1.0920885537210282e-03  1.0663482382910865e-04 -6.0198686843146454e-05 1.3745767520152289e-03  1.1304023715207188e-04 -7.2967386987286462e-05 1.6759768087487219e-03  1.1823248927907304e-04 -8.6396445446557628e-05 1.9928365209840771e-03  1.2233061474372912e-04 -1.0035710609830995e-04 2.3220183649175536e-03  1.2545792408048784e-04 -1.1473265332069905e-04 2.6607306518169147e-03  1.2773504562827522e-04 -1.2942048779732683e-04 3.0065105861559519e-03  1.2928655674684583e-04 -1.4433203507624971e-04 3.3572231573367429e-03  1.3024613361715964e-04 -1.5939289375402598e-04 3.7110909665690438e-03  1.3075357746392894e-04 -1.7454449592317324e-04 4.0667157901830972e-03  1.3095250693538781e-04 -1.8974539349231843e-04 4.4230869814698781e-03  1.3099193590093935e-04 -2.0497133965957846e-04 4.7795974164536259e-03  0.0000000000000000e+00 0.0000000000000000e+00 0.0000000000000000e+00  7.1632930749672104e-04 1.1185654845176558e-03 1.5845225950599168e-03  1.0461370930755036e-03 2.6101612591167547e-03 3.9696530157137255e-03  1.2568571614872326e-03 4.5173428558262568e-03 7.0997760483316776e-03  1.2162391915749163e-03 6.5648559737313834e-03 1.0564109951399413e-02  7.7565619441017188e-04 8.2029112888393190e-03 1.3387095215301037e-02  8.6692875407123841e-05 8.8137931001119971e-03 1.4282031159696821e-02  -2.7441605550930482e-04 8.3679432789910274e-03 1.3208074664096101e-02  -1.9518680079878641e-05 7.7570778240216905e-03 1.2330479928030928e-02  2.6966509082979517e-04 7.7414858816342563e-03 1.3134112260058211e-02  1.6730452390750338e-04 7.9429298894547612e-03 1.4020955799795509e-02  8.0445316041942555e-05 7.8894664247995856e-03 1.4019503127193255e-02  2.2994154092162715e-04 7.8772933988102891e-03 1.4359780825313730e-02  3.2776683023501394e-04 8.1265567092216398e-03 1.5343124201136532e-02  2.7519325330736984e-04 8.4257466380672080e-03 1.6232900283983529e-02  2.2310715652510760e-04 8.6496878728606948e-03 1.6894802438968789e-02  1.7392202178414970e-04 8.8865557381886621e-03 1.7643196479965099e-02  -4.0619737738585023e-05 9.2775827672138926e-03 1.8342676273606431e-02  -9.8109165138062253e-04 1.0620618646031517e-02 1.8266272268378167e-02  0.0000000000000000e+00 0.0000000000000000e+00 0.0000000000000000e+00  1.1142857202808482e-03 1.4570159905310158e-03 3.1777762509855559e-03  1.6466354215578689e-03 3.5194193999626743e-03 7.8401089590831811e-03  1.9827683559422377e-03 6.1572237952272658e-03 1.3907376136529516e-02  1.9304491361730001e-03 9.0240963147701515e-03 2.0577803239675608e-02  1.2434991870523917e-03 1.1387113849451480e-02 2.5993355983726388e-02  1.2752608079638541e-04 1.2388184657739026e-02 2.7734328723920246e-02  -5.1225220576835455e-04 1.1898462835577139e-02 2.5632186551263762e-02  -1.3688138864915238e-04 1.1049406826522595e-02 2.3626666328660353e-02  3.6995488449045947e-04 1.0946778241589216e-02 2.4677613921785385e-02  2.2025715609360458e-04 1.1205239602674017e-02 2.6059656006379595e-02  4.0346791848148524e-05 1.1155867563013226e-02 2.5820864028268116e-02  2.7505745837660685e-04 1.1123768147265171e-02 2.6108232452368957e-02  4.5358462510165087e-04 1.1437510407363667e-02 2.7609823571520472e-02  3.6708119646846992e-04 1.1849772858906456e-02 2.9007681965816628e-02  2.6598970981399594e-04 1.2173841795647022e-02 2.9977859293443338e-02  1.6532432541850205e-04 1.2523416174505324e-02 3.1088350508544114e-02  -1.7771873151908003e-04 1.3145228400243325e-02 3.2136325398932727e-02  -8.4864853834675587e-04 1.5225131586821742e-02 3.1957136828761890e-02  0.0000000000000000e+00 0.0000000000000000e+00 0.0000000000000000e+00  1.0905404457575193e-03 1.4129380840286704e-03 4.4811794120363825e-03  1.6492866571511833e-03 3.5790109459665647e-03 1.0970844911923652e-02  2.0212003870988169e-03 6.3573027882660319e-03 1.9372950148459977e-02  2.0268982239118644e-03 9.4176064387023126e-03 2.8577268419302550e-02  1.3884232517012054e-03 1.2005148402826462e-02 3.6088361861760343e-02  2.3114870118806728e-04 1.3192728512067084e-02 3.8726653207478451e-02  -5.4870795845837783e-04 1.2767153752586295e-02 3.6171269383908147e-02  -2.2925414450341780e-04 1.1865907692248432e-02 3.3375857929639645e-02  3.9016473246095308e-04 1.1709525964689618e-02 3.4376638215629599e-02  2.8048796060649848e-04 1.1969891490661829e-02 3.6052032154109341e-02  1.6793322897886492e-05 1.1925466706846013e-02 3.5754532431963866e-02  2.4529519888415006e-04 1.1878768722609786e-02 3.5999360360254126e-02  4.7559101273999562e-04 1.2192211758990604e-02 3.7813824790781658e-02  3.8771924113999406e-04 1.2627456734166657e-02 3.9605883915462312e-02  2.5085610054904504e-04 1.2980329158774983e-02 4.0864571412559177e-02  1.1665794166586581e-04 1.3374060018801519e-02 4.2282234738984299e-02  -3.8062117553711136e-04 1.4036373748816956e-02 4.3730659929925683e-02  -9.4307024157899775e-04 1.6393159734461631e-02 4.4335172083537155e-02  0.0000000000000000e+00 0.0000000000000000e+00 0.0000000000000000e+00  4.3352739676632863e-04 -7.7897492648865011e-04 4.0768980875732748e-03  7.2745632451292177e-04 -1.8299954719209132e-03 1.0408173830875700e-02  9.1369537240447169e-04 -3.1073784942380750e-03 1.8754383604309872e-02  9.2503426998256097e-04 -4.4366188079592098e-03 2.8062616339573215e-02  6.4110458868011733e-04 -5.4263239975226151e-03 3.5751618413336225e-02  1.3028690243535579e-04 -5.6844470680181879e-03 3.8365051843492239e-02  -1.9991242601629232e-04 -5.3153345192318265e-03 3.5615504268028085e-02  -8.4049510137334442e-05 -4.9797190313924950e-03 3.2846634966801402e-02  1.0524367466232813e-04 -5.0418738368307771e-03 3.3842230641340752e-02  3.4830086617123505e-05 -5.1663247645695135e-03 3.5330187655179097e-02  -3.3201791187584526e-05 -5.1472855943962273e-03 3.5103844810071491e-02  7.1276014476772333e-05 -5.2235559892461706e-03 3.5703418177506129e-02  1.3422456147365087e-04 -5.4585987923970831e-03 3.7815850950146376e-02  6.6568545207915087e-05 -5.6668327048797779e-03 3.9632471446297307e-02  -2.5927916510645434e-05 -5.7804238526699284e-03 4.0683776462381700e-02  -1.6611035595937221e-04 -5.8589239033674219e-03 4.1535850290957355e-02  -5.9336132942315253e-04 -6.0590240027446332e-03 4.2228611148144364e-02  -1.2432655905287272e-03 -6.8908327970417698e-03 4.1820154350218401e-02  0.0000000000000000e+00 0.0000000000000000e+00 0.0000000000000000e+00  4.6744341594640861e-04 -6.8514973936549431e-04 2.3488949380748316e-03  7.5754051476265840e-04 -1.5994152457831812e-03 6.4943265935955129e-03  9.4782042832395295e-04 -2.7315162629907618e-03 1.2176059946673534e-02  9.6547909354197168e-04 -3.9189473734186388e-03 1.8741478482705350e-02  6.8300246519632595e-04 -4.8203997459461880e-03 2.4427019393965219e-02  1.5608150859612379e-04 -5.0876085498296735e-03 2.6579233254672228e-02  -2.1309417150759493e-04 -4.7926749779869148e-03 2.4634451591433383e-02  -1.1531020052072952e-04 -4.4964011419008354e-03 2.2512001272261127e-02  1.0892685905807128e-04 -4.5337282135167771e-03 2.3353981408212147e-02  6.2624860045487968e-05 -4.6418601233534050e-03 2.4675672350801009e-02  -2.3586716443696718e-05 -4.6350083876320466e-03 2.4546215185162409e-02  7.5769214448163463e-05 -4.7023309325772405e-03 2.4958142192661299e-02  1.5635817135594595e-04 -4.9061157259834487e-03 2.6591852639038398e-02  9.5546982979223825e-05 -5.0943640996281439e-03 2.8033156965264192e-02  3.7059164637297448e-06 -5.2012337582002582e-03 2.8884838952169093e-02  -9.3145284991037134e-05 -5.2648936661966045e-03 2.9629645256199204e-02  -3.5537185678811961e-04 -5.4080849668764874e-03 3.0396952332433596e-02  -1.1615048307537790e-03 -6.2909276641691953e-03 3.0884579632795395e-02  0.0000000000000000e+00 0.0000000000000000e+00 0.0000000000000000e+00  3.1064425903829012e-04 -4.1100439865484245e-04 8.3291511064071538e-04  5.0078412297331349e-04 -9.6626350185122711e-04 2.6209518513935614e-03  6.2832113589038536e-04 -1.6718549796662541e-03 5.1921701370654270e-03  6.4552517584517586e-04 -2.4235614242196987e-03 8.2964584476012300e-03  4.6846319345822336e-04 -3.0098718420672656e-03 1.1151255759971506e-02  1.2810164335439069e-04 -3.2057756735585064e-03 1.2411970610883363e-02  -1.2216332448563501e-04 -3.0394720688582924e-03 1.1607785916213444e-02  -6.8273592690694770e-05 -2.8549888040336783e-03 1.0630531760153513e-02  8.9679819343849163e-05 -2.8756760946873857e-03 1.1215298388211661e-02  7.3444338049489291e-05 -2.9489854547211434e-03 1.2115582675787955e-02  1.1661952266696079e-05 -2.9526680884552686e-03 1.2206519431393224e-02  7.1468059979693061e-05 -2.9986446322543422e-03 1.2521018393416346e-02  1.3090011479466890e-04 -3.1304188413764059e-03 1.3495291009700199e-02  9.6466482276912302e-05 -3.2565412483803987e-03 1.4393478911841531e-02  3.8557403996401359e-05 -3.3334797665209152e-03 1.4987308149804443e-02  -6.4892869200483366e-06 -3.3826594311169357e-03 1.5548587678918070e-02  -8.1824042867738555e-05 -3.4417789916655213e-03 1.6173620491265448e-02  -1.0487388159875089e-03 -4.2084302024421802e-03 1.7028344812413072e-02  0.0000000000000000e+00 0.0000000000000000e+00 0.0000000000000000e+00  9.0194657390297361e-06 -1.5365690441140470e-06 2.7648727338649616e-05  1.7708496345572655e-05 -5.1076107115099295e-06 1.0619348825526194e-04  2.5424408265516774e-05 -1.0579436139303551e-05 2.3111483004998554e-04  3.2231066697107855e-05 -1.7739780155827687e-05 3.9715557455195744e-04  3.8166981397721458e-05 -2.6387095519191542e-05 5.9920724386535991e-04  4.3286484019664828e-05 -3.6330544841811478e-05 8.3243582747938587e-04  4.7654445272982394e-05 -4.7391041173633405e-05 1.0923745611246280e-03  5.1334733109133458e-05 -5.9402896761486525e-05 1.3749512381564727e-03  5.4383077932789580e-05 -7.2213352192382457e-05 1.6764301750294194e-03  5.6852526926011440e-05 -8.5681293156466071e-05 1.9933603258537307e-03  5.8800294705610297e-05 -9.9677179895108861e-05 2.3226043024483951e-03  6.0285309848108633e-05 -1.1408441955076207e-04 2.6613704376830011e-03  6.1365406444207114e-05 -1.2880011399037409e-04 3.0071963634561378e-03  6.2100411841943976e-05 -1.4373489675089282e-04 3.3579472838870549e-03  6.2554318378600012e-05 -1.5881373040006161e-04 3.7118458438310515e-03  6.2793919308395732e-05 -1.7397746980972188e-04 4.0674941859354611e-03  6.2887716249634468e-05 -1.8918392357719115e-04 4.4238824957750526e-03  6.2905651793321161e-05 -2.0440845945924560e-04 4.7804024137852391e-03  0.0000000000000000e+00 0.0000000000000000e+00 0.0000000000000000e+00  9.1603473232095644e-06 -2.2909347966172858e-06 2.7193599910447323e-05  1.8480549433774918e-05 -5.7260201819228188e-06 1.0569065639686221e-04  2.6701704564833875e-05 -1.1124233271088051e-05 2.3056712182647289e-04  3.3960049431103498e-05 -1.8216118695674315e-05 3.9656537891311349e-04  4.0294975512006430e-05 -2.6799037014822822e-05 5.9857827892512117e-04  4.5762736607709663e-05 -3.6683035190050866e-05 8.3177227762281064e-04  5.0431209404783849e-05 -4.7689332052870941e-05 1.0916812687320717e-03  5.4368174189349006e-05 -5.9651578764149049e-05 1.3742332023178438e-03  5.7632978143140289e-05 -7.2416364548608903e-05 1.6756917824600815e-03  6.0281401923539156e-05 -8.5842767209166323e-05 1.9926050887197184e-03  6.2373532048422105e-05 -9.9801624667185697e-05 2.3218352626343192e-03  6.3971863140840500e-05 -1.1417627422887715e-04 2.6605904165697670e-03  6.5137755108750670e-05 -1.2886379726383899e-04 3.0064078338538787e-03  6.5934357964348724e-05 -1.4377514995061010e-04 3.3571523501873114e-03  6.6429342464306747e-05 -1.5883560853459692e-04 3.7110462054112097e-03  6.6693622745687625e-05 -1.7398616582869306e-04 4.0666909203301944e-03  6.6799963536170876e-05 -1.8918461802867198e-04 4.4230757175416141e-03  6.6822630322441057e-05 -2.0440551487225722e-04 4.7795923631384690e-03  0.0000000000000000e+00 0.0000000000000000e+00 0.0000000000000000e+00  3.4980228083594410e-04 3.9650769731948350e-04 1.3822070004148677e-03  5.2467512776140318e-04 9.1169214913477405e-04 3.4981592660562537e-03  6.4166617562636593e-04 1.5793351783882389e-03 6.2739210860715119e-03  6.4312413907510160e-04 2.2976339188220444e-03 9.3517859209395881e-03  4.4834226650613965e-04 2.8755132870994815e-03 1.1850845150468511e-02  1.0395757639209750e-04 3.0970450412327768e-03 1.2584355400164877e-02  -1.1968015986332485e-04 2.9438436092893263e-03 1.1523417983847109e-02  -2.8460236816140891e-05 2.7181503581666460e-03 1.0723696060509030e-02  1.3365413925234011e-04 2.6923030370038523e-03 1.1560874778527790e-02  1.0044896768478068e-04 2.7486237587259952e-03 1.2437957494818989e-02  3.8521802755831338e-05 2.7222857058342423e-03 1.2427641744025740e-02  1.0391893946352212e-04 2.7068353526374235e-03 1.2757687340175442e-02  1.6332813989717823e-04 2.7776651489840039e-03 1.3707285788281690e-02  1.3546295156268879e-04 2.8675203371322329e-03 1.4545568194713143e-02  9.1874298114044011e-05 2.9345778451007314e-03 1.5155726732419043e-02  4.8937204154406348e-05 3.0099866054725064e-03 1.5851625406118803e-02  -5.6777011835033871e-05 3.1850590702065412e-03 1.6462561876418622e-02  -7.6110376036332911e-04 3.7625936931621859e-03 1.5898606660462781e-02  0.0000000000000000e+00 0.0000000000000000e+00 0.0000000000000000e+00  4.9416112108633488e-04 6.3083928820846698e-04 3.0478110430699023e-03  7.6836716953016470e-04 1.5444816301216076e-03 7.6084792641256367e-03  9.4262981343792060e-04 2.7232241090239515e-03 1.3522234525956210e-02  9.5177651338932594e-04 4.0139995669906583e-03 2.0032718493683977e-02  6.6810424708692404e-04 5.0912819890020109e-03 2.5322349048197829e-02  1.4753286698209893e-04 5.5652926246748859e-03 2.6995943902246192e-02  -2.0750521574123743e-04 5.3594002566090346e-03 2.4866270173702822e-02  -7.8337930991900670e-05 4.9668720348193659e-03 2.2849850387233125e-02  1.8018463560156805e-04 4.8969313096933970e-03 2.3918267230370386e-02  1.3043814007508318e-04 4.9980093889275285e-03 2.5329323395783060e-02  1.9424278144654226e-05 4.9701317585308588e-03 2.5087018764057389e-02  1.1694009985019886e-04 4.9458989503506634e-03 2.5354203502863680e-02  2.1504483413086758e-04 5.0698829502307287e-03 2.6848265432476946e-02  1.6848324582567406e-04 5.2401162609613467e-03 2.8236857189125091