<?xml version="1.0"?>
<VTKFile type="UnstructuredGrid"  version="0.1"  >
<UnstructuredGrid>
<Piece  NumberOfPoints="760" NumberOfCells="3024">
<Points>
<DataArray  type="Float64"  NumberOfComponents="3"  format="ascii">0 0 0  0.05555555555555555 0 0  0.1111111111111111 0 0  0.1666666666666667 0 0  0.2222222222222222 0 0  0.2777777777777778 0 0  0.3333333333333333 0 0  0.3888888888888889 0 0  0.4444444444444444 0 0  0.5 0 0  0.5555555555555556 0 0  0.6111111111111112 0 0  0.6666666666666666 0 0  0.7222222222222222 0 0  0.7777777777777778 0 0  0.8333333333333334 0 0  0.8888888888888888 0 0  0.9444444444444444 0 0  1 0 0  0 0.01428571428571429 0  0.05555555555555555 0.01428571428571429 0  0.1111111111111111 0.01428571428571429 0  0.1666666666666667 0.01428571428571429 0  0.2222222222222222 0.01428571428571429 0  0.2777777777777778 0.01428571428571429 0  0.3333333333333333 0.01428571428571429 0  0.3888888888888889 0.01428571428571429 0  0.4444444444444444 0.01428571428571429 0  0.5 0.01428571428571429 0  0.5555555555555556 0.01428571428571429 0  0.6111111111111112 0.01428571428571429 0  0.6666666666666666 0.01428571428571429 0  0.7222222222222222 0.01428571428571429 0  0.7777777777777778 0.01428571428571429 0  0.8333333333333334 0.01428571428571429 0  0.8888888888888888 0.01428571428571429 0  0.9444444444444444 0.01428571428571429 0  1 0.01428571428571429 0  0 0.02857142857142857 0  0.05555555555555555 0.02857142857142857 0  0.1111111111111111 0.02857142857142857 0  0.1666666666666667 0.02857142857142857 0  0.2222222222222222 0.02857142857142857 0  0.2777777777777778 0.02857142857142857 0  0.3333333333333333 0.02857142857142857 0  0.3888888888888889 0.02857142857142857 0  0.4444444444444444 0.02857142857142857 0  0.5 0.02857142857142857 0  0.5555555555555556 0.02857142857142857 0  0.6111111111111112 0.02857142857142857 0  0.6666666666666666 0.02857142857142857 0  0.7222222222222222 0.02857142857142857 0  0.7777777777777778 0.02857142857142857 0  0.8333333333333334 0.02857142857142857 0  0.8888888888888888 0.02857142857142857 0  0.9444444444444444 0.02857142857142857 0  1 0.02857142857142857 0  0 0.04285714285714286 0  0.05555555555555555 0.04285714285714286 0  0.1111111111111111 0.04285714285714286 0  0.1666666666666667 0.04285714285714286 0  0.2222222222222222 0.04285714285714286 0  0.2777777777777778 0.04285714285714286 0  0.3333333333333333 0.04285714285714286 0  0.3888888888888889 0.04285714285714286 0  0.4444444444444444 0.04285714285714286 0  0.5 0.04285714285714286 0  0.5555555555555556 0.04285714285714286 0  0.6111111111111112 0.04285714285714286 0  0.6666666666666666 0.04285714285714286 0  0.7222222222222222 0.04285714285714286 0  0.7777777777777778 0.04285714285714286 0  0.8333333333333334 0.04285714285714286 0  0.8888888888888888 0.04285714285714286 0  0.9444444444444444 0.04285714285714286 0  1 0.04285714285714286 0  0 0.05714285714285715 0  0.05555555555555555 0.05714285714285715 0  0.1111111111111111 0.05714285714285715 0  0.1666666666666667 0.05714285714285715 0  0.2222222222222222 0.05714285714285715 0  0.2777777777777778 0.05714285714285715 0  0.3333333333333333 0.05714285714285715 0  0.3888888888888889 0.05714285714285715 0  0.4444444444444444 0.05714285714285715 0  0.5 0.05714285714285715 0  0.5555555555555556 0.05714285714285715 0  0.6111111111111112 0.05714285714285715 0  0.6666666666666666 0.05714285714285715 0  0.7222222222222222 0.05714285714285715 0  0.7777777777777778 0.05714285714285715 0  0.8333333333333334 0.05714285714285715 0  0.8888888888888888 0.05714285714285715 0  0.9444444444444444 0.05714285714285715 0  1 0.05714285714285715 0  0 0.07142857142857142 0  0.05555555555555555 0.07142857142857142 0  0.1111111111111111 0.07142857142857142 0  0.1666666666666667 0.07142857142857142 0  0.2222222222222222 0.07142857142857142 0  0.2777777777777778 0.07142857142857142 0  0.3333333333333333 0.07142857142857142 0  0.3888888888888889 0.07142857142857142 0  0.4444444444444444 0.07142857142857142 0  0.5 0.07142857142857142 0  0.5555555555555556 0.07142857142857142 0  0.6111111111111112 0.07142857142857142 0  0.6666666666666666 0.07142857142857142 0  0.7222222222222222 0.07142857142857142 0  0.7777777777777778 0.07142857142857142 0  0.8333333333333334 0.07142857142857142 0  0.8888888888888888 0.07142857142857142 0  0.9444444444444444 0.07142857142857142 0  1 0.07142857142857142 0  0 0.08571428571428573 0  0.05555555555555555 0.08571428571428573 0  0.1111111111111111 0.08571428571428573 0  0.1666666666666667 0.08571428571428573 0  0.2222222222222222 0.08571428571428573 0  0.2777777777777778 0.08571428571428573 0  0.3333333333333333 0.08571428571428573 0  0.3888888888888889 0.08571428571428573 0  0.4444444444444444 0.08571428571428573 0  0.5 0.08571428571428573 0  0.5555555555555556 0.08571428571428573 0  0.6111111111111112 0.08571428571428573 0  0.6666666666666666 0.08571428571428573 0  0.7222222222222222 0.08571428571428573 0  0.7777777777777778 0.08571428571428573 0  0.8333333333333334 0.08571428571428573 0  0.8888888888888888 0.08571428571428573 0  0.9444444444444444 0.08571428571428573 0  1 0.08571428571428573 0  0 0.1 0  0.05555555555555555 0.1 0  0.1111111111111111 0.1 0  0.1666666666666667 0.1 0  0.2222222222222222 0.1 0  0.2777777777777778 0.1 0  0.3333333333333333 0.1 0  0.3888888888888889 0.1 0  0.4444444444444444 0.1 0  0.5 0.1 0  0.5555555555555556 0.1 0  0.6111111111111112 0.1 0  0.6666666666666666 0.1 0  0.7222222222222222 0.1 0  0.7777777777777778 0.1 0  0.8333333333333334 0.1 0  0.8888888888888888 0.1 0  0.9444444444444444 0.1 0  1 0.1 0  0 0 0.01  0.05555555555555555 0 0.01  0.1111111111111111 0 0.01  0.1666666666666667 0 0.01  0.2222222222222222 0 0.01  0.2777777777777778 0 0.01  0.3333333333333333 0 0.01  0.3888888888888889 0 0.01  0.4444444444444444 0 0.01  0.5 0 0.01  0.5555555555555556 0 0.01  0.6111111111111112 0 0.01  0.6666666666666666 0 0.01  0.7222222222222222 0 0.01  0.7777777777777778 0 0.01  0.8333333333333334 0 0.01  0.8888888888888888 0 0.01  0.9444444444444444 0 0.01  1 0 0.01  0 0.01428571428571429 0.01  0.05555555555555555 0.01428571428571429 0.01  0.1111111111111111 0.01428571428571429 0.01  0.1666666666666667 0.01428571428571429 0.01  0.2222222222222222 0.01428571428571429 0.01  0.2777777777777778 0.01428571428571429 0.01  0.3333333333333333 0.01428571428571429 0.01  0.3888888888888889 0.01428571428571429 0.01  0.4444444444444444 0.01428571428571429 0.01  0.5 0.01428571428571429 0.01  0.5555555555555556 0.01428571428571429 0.01  0.6111111111111112 0.01428571428571429 0.01  0.6666666666666666 0.01428571428571429 0.01  0.7222222222222222 0.01428571428571429 0.01  0.7777777777777778 0.01428571428571429 0.01  0.8333333333333334 0.01428571428571429 0.01  0.8888888888888888 0.01428571428571429 0.01  0.9444444444444444 0.01428571428571429 0.01  1 0.01428571428571429 0.01  0 0.02857142857142857 0.01  0.05555555555555555 0.02857142857142857 0.01  0.1111111111111111 0.02857142857142857 0.01  0.1666666666666667 0.02857142857142857 0.01  0.2222222222222222 0.02857142857142857 0.01  0.2777777777777778 0.02857142857142857 0.01  0.3333333333333333 0.02857142857142857 0.01  0.3888888888888889 0.02857142857142857 0.01  0.4444444444444444 0.02857142857142857 0.01  0.5 0.02857142857142857 0.01  0.5555555555555556 0.02857142857142857 0.01  0.6111111111111112 0.02857142857142857 0.01  0.6666666666666666 0.02857142857142857 0.01  0.7222222222222222 0.02857142857142857 0.01  0.7777777777777778 0.02857142857142857 0.01  0.8333333333333334 0.02857142857142857 0.01  0.8888888888888888 0.02857142857142857 0.01  0.9444444444444444 0.02857142857142857 0.01  1 0.02857142857142857 0.01  0 0.04285714285714286 0.01  0.05555555555555555 0.04285714285714286 0.01  0.1111111111111111 0.04285714285714286 0.01  0.1666666666666667 0.04285714285714286 0.01  0.2222222222222222 0.04285714285714286 0.01  0.2777777777777778 0.04285714285714286 0.01  0.3333333333333333 0.04285714285714286 0.01  0.3888888888888889 0.04285714285714286 0.01  0.4444444444444444 0.04285714285714286 0.01  0.5 0.04285714285714286 0.01  0.5555555555555556 0.04285714285714286 0.01  0.6111111111111112 0.04285714285714286 0.01  0.6666666666666666 0.04285714285714286 0.01  0.7222222222222222 0.04285714285714286 0.01  0.7777777777777778 0.04285714285714286 0.01  0.8333333333333334 0.04285714285714286 0.01  0.8888888888888888 0.04285714285714286 0.01  0.9444444444444444 0.04285714285714286 0.01  1 0.04285714285714286 0.01  0 0.05714285714285715 0.01  0.05555555555555555 0.05714285714285715 0.01  0.1111111111111111 0.05714285714285715 0.01  0.1666666666666667 0.05714285714285715 0.01  0.2222222222222222 0.05714285714285715 0.01  0.2777777777777778 0.05714285714285715 0.01  0.3333333333333333 0.05714285714285715 0.01  0.3888888888888889 0.05714285714285715 0.01  0.4444444444444444 0.05714285714285715 0.01  0.5 0.05714285714285715 0.01  0.5555555555555556 0.05714285714285715 0.01  0.6111111111111112 0.05714285714285715 0.01  0.6666666666666666 0.05714285714285715 0.01  0.7222222222222222 0.05714285714285715 0.01  0.7777777777777778 0.05714285714285715 0.01  0.8333333333333334 0.05714285714285715 0.01  0.8888888888888888 0.05714285714285715 0.01  0.9444444444444444 0.05714285714285715 0.01  1 0.05714285714285715 0.01  0 0.07142857142857142 0.01  0.05555555555555555 0.07142857142857142 0.01  0.1111111111111111 0.07142857142857142 0.01  0.1666666666666667 0.07142857142857142 0.01  0.2222222222222222 0.07142857142857142 0.01  0.2777777777777778 0.07142857142857142 0.01  0.3333333333333333 0.07142857142857142 0.01  0.3888888888888889 0.07142857142857142 0.01  0.4444444444444444 0.07142857142857142 0.01  0.5 0.07142857142857142 0.01  0.5555555555555556 0.07142857142857142 0.01  0.6111111111111112 0.07142857142857142 0.01  0.6666666666666666 0.07142857142857142 0.01  0.7222222222222222 0.07142857142857142 0.01  0.7777777777777778 0.07142857142857142 0.01  0.8333333333333334 0.07142857142857142 0.01  0.8888888888888888 0.07142857142857142 0.01  
[...]
<PointData  Vectors="f_36"> 
<DataArray  type="Float64"  Name="f_36"  NumberOfComponents="3" format="ascii">0.0000000000000000e+00 0.0000000000000000e+00 0.0000000000000000e+00  2.1332188144099031e-04 3.3265783448587643e-04 -2.3049593815390322e-03  1.6267831482952395e-03 -1.1512035860786359e-03 6.7565998613258217e-04  2.3856186511106922e-03 -4.2261787419521904e-03 1.0674251745115378e-02  1.3110883270972872e-03 -6.6226028589735520e-03 1.9890155386622626e-02  1.2076186444313498e-04 -7.1043026839396903e-03 2.0989950316206169e-02  6.9276250756010295e-05 -7.1111322820569325e-03 2.0373200414134221e-02  2.5472430672088047e-04 -7.4275222736585140e-03 2.1692945591539385e-02  2.5792226849740210e-04 -7.7482951632077456e-03 2.2822450944508025e-02  2.5798634685955299e-04 -8.0590358191026095e-03 2.3856850105849023e-02  2.8659941425851894e-04 -8.3923248169945376e-03 2.4986642565434272e-02  3.1609588010775888e-04 -8.7484528818051258e-03 2.6312858768430820e-02  2.1002226711535669e-04 -9.0575480345485206e-03 2.7561918455777421e-02  3.3239100956826743e-04 -9.4010666041989526e-03 2.8019764527641534e-02  6.6086034532080850e-04 -1.0179432436919808e-02 3.0417315467087092e-02  2.9742221908219383e-04 -1.0936334513579978e-02 3.4033425388688761e-02  -3.5833150872183553e-04 -1.0960886370595547e-02 3.4394728049146707e-02  -8.8950115657496188e-04 -1.0795753994598117e-02 3.3786155494528160e-02  -1.5185843740864646e-03 -1.1378107294148385e-02 3.2893276894445975e-02  0.0000000000000000e+00 0.0000000000000000e+00 0.0000000000000000e+00  9.6511916158009643e-05 3.6832841446000133e-04 -1.9233845775726065e-03  1.4011506176437175e-03 -8.5345941484688112e-04 -2.5547713610522084e-04  2.2765953445511439e-03 -3.6484907406159339e-03 6.8803360106172995e-03  1.4188367705326203e-03 -5.9894211645167483e-03 1.3889179845016073e-02  1.5984567511632099e-04 -6.5469835242793709e-03 1.4635860050139804e-02  2.8788009619518577e-05 -6.5526849003338323e-03 1.3986474556984842e-02  2.5236742509562334e-04 -6.8327879381842619e-03 1.4986339169665673e-02  2.5708989394717660e-04 -7.1319652030247390e-03 1.5846014404693059e-02  2.5376419730207346e-04 -7.4165714387616844e-03 1.6605336649160016e-02  2.7737737572907750e-04 -7.7233982928424745e-03 1.7442176013025931e-02  3.0762388061345979e-04 -8.0542400169611571e-03 1.8432126398740437e-02  2.2988402053184938e-04 -8.3393107727418869e-03 1.9406768831960079e-02  2.9049165273816038e-04 -8.6286671366600908e-03 1.9624768792611425e-02  6.0938203809613378e-04 -9.3217497343081046e-03 2.1275607350315393e-02  3.7803355486938433e-04 -1.0065619683925430e-02 2.4139203443171012e-02  -2.4268414178629780e-04 -1.0144699533619060e-02 2.4533878102920622e-02  -6.2121394147232969e-04 -1.0006544061606478e-02 2.4213348207373107e-02  -1.4822956532965855e-03 -1.0847376944859632e-02 2.4058554711700781e-02  0.0000000000000000e+00 0.0000000000000000e+00 0.0000000000000000e+00  3.5076329741917589e-05 3.4064586291345867e-04 -1.0238383021838593e-03  8.2343786461390217e-04 -3.6284141289445054e-04 -4.0682255336255336e-04  1.4186321126786739e-03 -2.2612361107464309e-03 3.0928650565064425e-03  9.5784778743871401e-04 -3.9793947737152618e-03 6.7874809981887160e-03  1.4204747770536573e-04 -4.4067031193390348e-03 7.2203734755408727e-03  2.7245942442912391e-05 -4.3742442628582996e-03 6.8665916588631672e-03  1.8457502300385362e-04 -4.5550759722026600e-03 7.4557467961863426e-03  1.9260949378126601e-04 -4.7625598994157862e-03 7.9887153417830727e-03  1.9080075366916717e-04 -4.9526848469448811e-03 8.4597565637127871e-03  2.0574330142004532e-04 -5.1588283611222682e-03 8.9777660805330801e-03  2.2422956747032149e-04 -5.3875482986430641e-03 9.5783943884334144e-03  1.8661148742680212e-04 -5.5813591179152836e-03 1.0204133273530697e-02  2.0706648813697599e-04 -5.7387861304645949e-03 1.0368067939186201e-02  4.0238834763362392e-04 -6.1902905027481255e-03 1.1229565720705860e-02  3.0465834726896442e-04 -6.7543866121663187e-03 1.2862779923331638e-02  -7.3791475219803977e-05 -6.8569086960031354e-03 1.3238310845046402e-02  -2.1441149527587206e-04 -6.7362168330720729e-03 1.3235338603105301e-02  -1.4144526319083523e-03 -7.8644340472963543e-03 1.3613676161675976e-02  0.0000000000000000e+00 0.0000000000000000e+00 0.0000000000000000e+00  1.4192682290590324e-05 -1.2411031818888434e-06 2.0969371655300731e-05  2.7123426227031416e-05 -3.9606811112075949e-06 7.9156039271204777e-05  3.8769988616477108e-05 -8.1246551499339903e-06 1.7205575251288827e-04  4.9099155368340676e-05 -1.3543815163351751e-05 2.9589734255402675e-04  5.8167393532654659e-05 -2.0061290007162737e-05 4.4699845331204235e-04  6.6052612971306102e-05 -2.7529729409083918e-05 6.2191599363512363e-04  7.2825250255290281e-05 -3.5814280617133913e-05 8.1742234433130364e-04  7.8554172754319727e-05 -4.4789880912587295e-05 1.0304714107730116e-03  8.3313430542081879e-05 -5.4340884321884226e-05 1.2582209142229105e-03  8.7180725983470851e-05 -6.4361647582635020e-05 1.4980442016052473e-03  9.0237012084153065e-05 -7.4756950676800859e-05 1.7475382235156349e-03  9.2567362446864212e-05 -8.5442171546906305e-05 2.0045331200959746e-03  9.4261960907295232e-05 -9.6343234650722771e-05 2.2671057846939697e-03  9.5412226794268235e-05 -1.0739729684466890e-04 2.5335963794991660e-03  9.6112046063005912e-05 -1.1855275445694851e-04 2.8025969287222285e-03  9.6469014110881694e-05 -1.2976829120629066e-04 3.0729709965278858e-03  9.6600620326984932e-05 -1.4101357460553237e-04 3.3439155891509882e-03  9.6623879215891647e-05 -1.5227256880253535e-04 3.6149643302550391e-03  0.0000000000000000e+00 0.0000000000000000e+00 0.0000000000000000e+00  1.3405567654082715e-05 -2.0131736380885229e-06 2.0750039545749033e-05  2.6842789235152077e-05 -4.6637547214322101e-06 7.8840101131896379e-05  3.8964164237561012e-05 -8.7523368545463525e-06 1.7170098052426400e-04  4.9720458038483686e-05 -1.4094913037730779e-05 2.9550714102220994e-04  5.9168289323778883e-05 -2.0541102054785357e-05 4.4657621843662200e-04  6.7389623592639618e-05 -2.7943044785984413e-05 6.2146599118006736e-04  7.4458771975422508e-05 -3.6164958227651443e-05 8.1694858916526070e-04  8.0446335561185645e-05 -4.5082140725481601e-05 1.0299773544591500e-03  8.5428455381243587e-05 -5.4579248892262764e-05 1.2577097824114398e-03  8.9485186113846951e-05 -6.4550802340608297e-05 1.4975189247111538e-03  9.2699848375294726e-05 -7.4901788115697127e-05 1.7470014081750398e-03  9.5159727927013007e-05 -8.5547909594468511e-05 2.0039870334836989e-03  9.6957324852407818e-05 -9.6415307028002934e-05 2.2665523923119236e-03  9.8187317551053500e-05 -1.0744089952498941e-04 2.5330373195682969e-03  9.8945505575699018e-05 -1.1857369385100866e-04 2.8020332742341586e-03  9.9340133502486119e-05 -1.2977365970226267e-04 3.0724032257701929e-03  9.9491797622694916e-05 -1.4101038790232209e-04 3.3433435613014271e-03  9.9521106132535145e-05 -1.5226633544887429e-04 3.6143867442335431e-03  0.0000000000000000e+00 0.0000000000000000e+00 0.0000000000000000e+00  1.2557030142109385e-04 -3.0009972131793617e-04 -9.0617482370667843e-04  9.4518090035529726e-04 3.6102557727912669e-04 3.1439979964633389e-04  1.3832710427447781e-03 2.2730933975305674e-03 4.2753153509504987e-03  7.6228335827386955e-04 4.1714157008594524e-03 7.7165162685623907e-03  9.2078496090784929e-05 4.7551947253980670e-03 7.7576167162169054e-03  9.4309687523935754e-05 4.7329213305687557e-03 7.4879994628531728e-03  2.1023996884592856e-04 4.8929208923436844e-03 8.1648577653314694e-03  2.1303204731286957e-04 5.1024242088616558e-03 8.6946329163271226e-03  2.1875541648300035e-04 5.2925371671023033e-03 9.2001030298150908e-03  2.3958382170902420e-04 5.5025760021312087e-03 9.7485989682629236e-03  2.6519261666480172e-04 5.7369346250106265e-03 1.0382315245599922e-02  2.0207040890270038e-04 5.9430283599683654e-03 1.1030526883543550e-02  2.3606922274912060e-04 6.0753042233106175e-03 1.1278025034733088e-02  4.5414894665641626e-04 6.4836321092225117e-03 1.2202240452619400e-02  3.5952602518082914e-04 7.1758309147550280e-03 1.3865139168777801e-02  3.7943029441058477e-05 7.5102586767212360e-03 1.4367337562734213e-02  -2.1915690327999410e-04 7.6689118856879904e-03 1.4485633995269498e-02  -9.8031293767642251e-04 8.6494200502729192e-03 1.4187215835717708e-02  0.0000000000000000e+00 0.0000000000000000e+00 0.0000000000000000e+00  1.5623211379045025e-04 -4.0165067576161537e-04 -1.6177257070466495e-03  1.4445274699355331e-03 3.8315570179348746e-04 5.8236751476531152e-04  2.2260984715253393e-03 2.9017778998783900e-03 7.9176170644301488e-03  1.2836034198130070e-03 5.5941563334983820e-03 1.4611694186865051e-02  1.0921762897414639e-04 6.5992101138779291e-03 1.5027106436153570e-02  8.1647421455948184e-05 6.6567780905690916e-03 1.4453032753917428e-02  2.9788757198036405e-04 6.8738195880675953e-03 1.5524385475244781e-02  2.9504859342023983e-04 7.1681019346490583e-03 1.6375065259684272e-02  3.0016594786436038e-04 7.4413649851994773e-03 1.7161347485876156e-02  3.2824514413298589e-04 7.7427223892319510e-03 1.8030118907048098e-02  3.7051752739812393e-04 8.0773647897301130e-03 1.9024950826287839e-02  2.8064003160143335e-04 8.3759826482795209e-03 2.0049037971191574e-02  3.0096669394076564e-04 8.5708848767577697e-03 2.0367394674884944e-02  6.4960989460777707e-04 9.1223003175707473e-03 2.1884926678975711e-02  5.4826101925088059e-04 1.0101459294255878e-02 2.4863217233619426e-02  -1.7364635177287437e-05 1.0654983317648576e-02 2.5774359705863326e-02  -4.6725880292926845e-04 1.0986072705409763e-02 2.5823071533967543e-02  -1.0042862369742274e-03 1.2573990783888982e-02 2.5200472339042969e-02  0.0000000000000000e+00 0.0000000000000000e+00 0.0000000000000000e+00  4.8338281028628052e-05 -4.3359770716105056e-04 -1.9498202725970364e-03  1.3537549084043430e-03 2.8550313286703372e-04 9.3474835332880827e-04  2.3470915641028546e-03 2.8711348815856209e-03 1.0511661982639158e-02  1.5108204093858943e-03 5.7784774770431261e-03 1.9679865161880375e-02  1.0953669546601375e-04 6.9633427781302677e-03 2.0919626848612819e-02  1.6881257372951096e-05 7.0842785012935729e-03 2.0328717510762463e-02  3.1439877610973238e-04 7.3195236103225708e-03 2.1640168238568069e-02  3.0664958753628675e-04 7.6323678404281595e-03 2.2762140199380842e-02  3.0608566501422782e-04 7.9253086801467365e-03 2.3790232846485557e-02  3.3243767428693286e-04 8.2463010053144357e-03 2.4934742453895119e-02  3.8148835367279437e-04 8.6057448084664902e-03 2.6217804456312756e-02  3.0998614674383084e-04 8.9342644514629997e-03 2.7540062787814172e-02  2.6503707345575778e-04 9.1379984605262608e-03 2.8031982346709155e-02  6.1799936753083003e-04 9.6994008877367768e-03 2.9988881430204176e-02  6.1563041756286865e-04 1.0752191862419101e-02 3.3891933217488644e-02  -4.1772398260708909e-05 1.1404711952427081e-02 3.5315312278044637e-02  -6.8403011774999484e-04 1.1789249418123581e-02 3.5523329489431099e-02  -1.1350128077615156e-03 1.3642613061715761e-02 3.5408796749439177e-02  0.0000000000000000e+00 0.0000000000000000e+00 0.0000000000000000e+00  1.0825574356729092e-04 1.9044574810004724e-04 -2.3295238437686188e-03  7.0216188960472623e-04 -3.6752669050697020e-04 4.9299427274184491e-04  1.1060912532414771e-03 -1.7277533821401657e-03 1.0410127622688517e-02  6.9393291205989784e-04 -2.8776160115256228e-03 1.9686414620843726e-02  9.5321848656917477e-05 -3.1217957807777343e-03 2.0824727726586188e-02  -4.6620023589039560e-06 -3.0907477150581165e-03 2.0160396042937581e-02  8.9200677608983409e-05 -3.2210959075571837e-03 2.1458812350696341e-02  1.0748204587197320e-04 -3.3679232515062148e-03 2.2589824616503294e-02  1.0471544001265940e-04 -3.5067649511469384e-03 2.3614699803641292e-02  1.1368004905711770e-04 -3.6531281689019925e-03 2.4733092023798080e-02  1.3609276617791924e-04 -3.8073082918779230e-03 2.6049668883587517e-02  9.8219251420318039e-05 -3.9483127674545867e-03 2.7298650594729693e-02  1.1383749110388964e-04 -4.0915353445899983e-03 2.7730513533125316e-02  2.2982760721532684e-04 -4.4141480239190565e-03 3.0088614765924518e-02  5.2032883750389017e-05 -4.7682460079412139e-03 3.3728372162910775e-02  -3.3272573915564541e-04 -4.8116796029147868e-03 3.4120288282686900e-02  -7.6003308796640783e-04 -4.8407207999952746e-03 3.3500019122598819e-02  -1.3088053771002338e-03 -5.5218138634259423e-03 3.2598740229573916e-02  0.0000000000000000e+00 0.0000000000000000e+00 0.0000000000000000e+00  7.0251828074159700e-05 1.6142180646902361e-04 -1.9374651120514787e-03  6.6794048559765465e-04 -3.1420613897467143e-04 -3.9324020005668096e-04  1.1287754833963959e-03 -1.4883488997230823e-03 6.6770361952587154e-03  7.6635416581946907e-04 -2.5187776279112753e-03 1.3732253024658679e-02  1.1756129004957908e-04 -2.7824860002324818e-03 1.4496727222628030e-02  -1.4598886177654773e-05 -2.7771969851144132e-03 1.3787807997945004e-02  9.6794991037435163e-05 -2.8921243407041453e-03 1.4765285944014665e-02  1.1750746541668769e-04 -3.0234639801680909e-03 1.5628657069591614e-02  1.1390845550737849e-04 -3.1487314455006452e-03 1.6378741045414445e-02  1.2121912205440621e-04 -3.2818419100328258e-03 1.7204958467525042e-02  1.4112320193301759e-04 -3.4214727847012971e-03 1.8185251418204061e-02  1.1404524221053372e-04 -3.5483295961782303e-03 1.9159459697561824e-02  1.1808413988052425e-04 -3.6785104460329210e-03 1.9355723964730422e-02  2.3792117661313085e-04 -3.9597135953497054e-03 2.0969233392870025e-02  1.0964609419016420e-04 -4.2723551901844691e-03 2.3852764892842125e-02  -2.4723669401178404e-04 -4.3211835888536084e-03 2.4272100019538962e-02  -5.4273433625167289e-04 -4.3229575321983302e-03 2.3942923976661978e-02  -1.2080362408802628e-03 -5.0429429174023164e-03 2.3852021282308095e-02  0.0000000000000000e+00 0.0000000000000000e+00 0.0000000000000000e+00  3.4675807890085094e-05 1.0821648689730890e-04 -1.0338458895244439e-03  4.1701499608860407e-04 -1.7427339910941285e-04 -5.4152590949581238e-04  7.3620539104239755e-04 -8.9886799369070472e-04 2.8160856329578596e-03  5.3121093537620873e-04 -1.5596847971824847e-03 6.4421577297323835e-03  9.9102917705130733e-05 -1.7477507324814947e-03 6.8383922052112972e-03  -2.5549465832131020e-06 -1.7542729974467119e-03 6.4249611138653987e-03  7.6472825107216786e-05 -1.8288661443397320e-03 6.9844303148163265e-03  9.3439652674535753e-05 -1.9140417701547616e-03 7.5079221623378656e-03  9.1565624110342530e-05 -1.9957354005161929e-03 7.9592772316492612e-03  9.6367195286325882e-05 -2.0832392526577278e-03 8.4559754289245722e-03  1.0760286679504063e-04 -2.1759018588148292e-03 9.0356453529316962e-03  9.5484946578674841e-05 -2.2589988513110905e-03 9.6457992235532471e-03  9.4907799690625668e-05 -2.3399154761818090e-03 9.7788697678266832e-03  1.7104496890639920e-04 -2.5171645275984906e-03 1.0588005459521911e-02  1.1118754107316062e-04 -2.7231744177355693e-03 1.2205710822734786e-02  -1.0431632356470234e-04 -2.7683830469840396e-03 1.2590692772973007e-02  -2.2123599065638623e-04 -2.7441995151682459e-03 1.2579590627773319e-02  -1.0031470608561255e-03 -3.3641573166538182e-03 1.2967935740438852e-02  0.0000000000000000e+00 0.0000000000000000e+00 0.0000000000000000e+00  6.6777788094502195e-06 -1.1592587494909272e-06 2.0378507684335374e-05  1.3152483432566770e-05 -3.8540067891768908e-06 7.8611746072856242e-05  1.8938922675956134e-05 -7.9757446520775445e-06 1.7156560812718775e-04  2.4073581735759981e-05 -1.3357417175631347e-05 2.9546300680719087e-04  2.8584492533304356e-05 -1.9840832040657865e-05 4.4661749830522283e-04  3.2510132879309083e-05 -2.7279084062800213e-05 6.2158528321612787e-04  3.5885637087425444e-05 -3.5536820614025693e-05 8.1713889809520435e-04  3.8744667652193413e-05 -4.4488726247971048e-05 1.0302322065162167e-03  4.1123385919666462e-05 -5.4019051806031062e-05 1.2580227272947885e-03  4.3059885194482847e-05 -6.4021970346408343e-05 1.4978836576518067e-03  4.4593857353069098e-05 -7.4402057762773782e-05 1.7474118025431944e-03  4.5766965686925629e-05 -8.5074520536636844e-05 2.0044371225218121e-03  4.6623415512171075e-05 -9.5965142361377237e-05 2.2670363067828860e-03  4.7208375641335426e-05 -1.0701070169305097e-04 2.5335494367586826e-03  4.7567995891330455e-05 -1.1815932710204932e-04 2.8025683569728537e-03  4.7754733627904998e-05 -1.2936969258988697e-04 3.0729561020348705e-03  4.7826342117381190e-05 -1.4061103824996208e-04 3.3439092925878510e-03  4.7839597680743575e-05 -1.5186594132855994e-04 3.6149596286577392e-03  0.0000000000000000e+00 0.0000000000000000e+00 0.0000000000000000e+00  6.7898024323232008e-06 -1.7197116454798645e-06 2.0043840625233235e-05  1.3736014945503748e-05 -4.3168554786635552e-06 7.8242702944275312e-05  1.9899320675659668e-05 -8.3857950734700013e-06 1.7116419727255500e-04  2.5368962331656198e-05 -1.3718132534292877e-05 2.9503068374485224e-04  3.0173671592399444e-05 -2.0155502984650389e-05 4.4615737766248297e-04  3.4354934261366990e-05 -2.7550782489302156e-05 6.2110130039314307e-04  3.7950979457400826e-05 -3.5768132296265245e-05 8.1663480176639286e-04  4.0997827178974555e-05 -4.4682320932982945e-05 1.0297113347104894e-03  4.3534020361877183e-05 -5.4177791411533475e-05 1.2574881571586897e-03  4.5600196357665286e-05 -6.4148839670860657e-05 1.4973381518842053e-03  4.7238668170336325e-05 -7.4500170804083423e-05 1.7468577999673652e-03  4.8493695455639438e-05 -8.5147172770519289e-05 2.0038767324771075e-03  4.9412130143393499e-05 -9.6015784244031757e-05 2.2664713060566908e-03  5.0042118495382810e-05 -1.0704274745629981e-04 2.5329812091222700e-03  5.0432422770320760e-05 -1.1817646891820085e-04 2.8019978558022269e-03  5.0637652528448867e-05 -1.2937627348845343e-04 3.0723837674002832e-03  5.0718562703056898e-05 -1.4061142240871289e-04 3.3433348429476439e-03  5.0735344947832743e-05 -1.5186352330563487e-04 3.6143828367413270e-03  0.0000000000000000e+00 0.0000000000000000e+00 0.0000000000000000e+00  4.6104117162861069e-05 -1.1849276933537837e-04 -8.7940046070341586e-04  4.5165424904661402e-04 9.7317235181920613e-05 2.2545351822123654e-04  7.3707081261072376e-04 7.5143095979823089e-04 3.8965339713001390e-03  4.7000059608101591e-04 1.4206686805634939e-03 7.0173059078069942e-03  7.5665530886746702e-05 1.6429764270471667e-03 6.8687848348625647e-03  3.4632202301615242e-05 1.6446600168918502e-03 6.5344841435109663e-03  1.0759641801946226e-04 1.6961419180211250e-03 7.1848513038698580e-03  1.1756983785649528e-04 1.7630077179796790e-03 7.6795342408266017e-03  1.1952238206128476e-04 1.8236526479938737e-03 8.1435760032326429e-03  1.2950625762642612e-04 1.8932280487150537e-03 8.6481813231876602e-03  1.4730460637430717e-04 1.9721052390574644e-03 9.2344711900538660e-03  1.1956369201103259e-04 2.0368444924310485e-03 9.8435510064866678e-03  1.1283057428198810e-04 2.0755251696496298e-03 1.0051385287589068e-02  2.1068647212209234e-04 2.2160935907054044e-03 1.0896598787482909e-02  1.7614217327896299e-04 2.4577170070107647e-03 1.2453960231398657e-02  -1.7005400114543952e-05 2.5688361866174703e-03 1.2875523557948951e-02  -1.6843844825491173e-04 2.6594169789984140e-03 1.2925935677784701e-02  -7.4799111245861744e-04 3.1207954834031994e-03 1.2247140681049241e-02  0.0000000000000000e+00 0.0000000000000000e+00 0.0000000000000000e+00  6.1646938382157784e-05 -2.0157349477804544e-04 -1.6176286865083470e-03  6.5938565843801165e-04 1.1333681727609215e-04 4.9527163621031212e-04  1.1171931010925263e-03 1.2214860556529516e-03 7.7377236234525632e-03  7.2604495015110495e-04 2.4437438722863542e-03 1.4360986732588364e-02  9.0654351766013754e-05 2.9241419988650019e-03 1.4680916286702499e-02  1.8142717043613260e-05 2.9664432180981212e-03 1.4014612770266676e-02  1.4320170738651503e-04 3.0610248392952503e-03 1.5062474083744800e-02  1.5821592323683479e-04 3.1870461887922017e-03 1.5906172534139725e-02  1.5942942344780131e-04 3.3043535071142754e-03 1.6672025554654954e-02  1.7173458417302459e-04 3.4363955935518948e-03 1.7518667222186386e-02  2.0023989055008699e-04 3.5864824246010013e-03 1.8490295138076953e-02  1.6249901907199456e-04 3.7156064750890334e-03 1.9502100046190098e-02  1.3605927377793907e-04 3.7937075344697435e-03 1.9796589281719065e-02  2.7889277512350199e-04 4.0386708334203799e-03 2.1263727043975351e-