<?xml version="1.0"?>
<VTKFile type="UnstructuredGrid"  version="0.1"  >
<UnstructuredGrid>
<Piece  NumberOfPoints="760" NumberOfCells="3024">
<Points>
<DataArray  type="Float64"  NumberOfComponents="3"  format="ascii">0 0 0  0.05555555555555555 0 0  0.1111111111111111 0 0  0.1666666666666667 0 0  0.2222222222222222 0 0  0.2777777777777778 0 0  0.3333333333333333 0 0  0.3888888888888889 0 0  0.4444444444444444 0 0  0.5 0 0  0.5555555555555556 0 0  0.6111111111111112 0 0  0.6666666666666666 0 0  0.7222222222222222 0 0  0.7777777777777778 0 0  0.8333333333333334 0 0  0.8888888888888888 0 0  0.9444444444444444 0 0  1 0 0  0 0.01428571428571429 0  0.05555555555555555 0.01428571428571429 0  0.1111111111111111 0.01428571428571429 0  0.1666666666666667 0.01428571428571429 0  0.2222222222222222 0.01428571428571429 0  0.2777777777777778 0.01428571428571429 0  0.3333333333333333 0.01428571428571429 0  0.3888888888888889 0.01428571428571429 0  0.4444444444444444 0.01428571428571429 0  0.5 0.01428571428571429 0  0.5555555555555556 0.01428571428571429 0  0.6111111111111112 0.01428571428571429 0  0.6666666666666666 0.01428571428571429 0  0.7222222222222222 0.01428571428571429 0  0.7777777777777778 0.01428571428571429 0  0.8333333333333334 0.01428571428571429 0  0.8888888888888888 0.01428571428571429 0  0.9444444444444444 0.01428571428571429 0  1 0.01428571428571429 0  0 0.02857142857142857 0  0.05555555555555555 0.02857142857142857 0  0.1111111111111111 0.02857142857142857 0  0.1666666666666667 0.02857142857142857 0  0.2222222222222222 0.02857142857142857 0  0.2777777777777778 0.02857142857142857 0  0.3333333333333333 0.02857142857142857 0  0.3888888888888889 0.02857142857142857 0  0.4444444444444444 0.02857142857142857 0  0.5 0.02857142857142857 0  0.5555555555555556 0.02857142857142857 0  0.6111111111111112 0.02857142857142857 0  0.6666666666666666 0.02857142857142857 0  0.7222222222222222 0.02857142857142857 0  0.7777777777777778 0.02857142857142857 0  0.8333333333333334 0.02857142857142857 0  0.8888888888888888 0.02857142857142857 0  0.9444444444444444 0.02857142857142857 0  1 0.02857142857142857 0  0 0.04285714285714286 0  0.05555555555555555 0.04285714285714286 0  0.1111111111111111 0.04285714285714286 0  0.1666666666666667 0.04285714285714286 0  0.2222222222222222 0.04285714285714286 0  0.2777777777777778 0.04285714285714286 0  0.3333333333333333 0.04285714285714286 0  0.3888888888888889 0.04285714285714286 0  0.4444444444444444 0.04285714285714286 0  0.5 0.04285714285714286 0  0.5555555555555556 0.04285714285714286 0  0.6111111111111112 0.04285714285714286 0  0.6666666666666666 0.04285714285714286 0  0.7222222222222222 0.04285714285714286 0  0.7777777777777778 0.04285714285714286 0  0.8333333333333334 0.04285714285714286 0  0.8888888888888888 0.04285714285714286 0  0.9444444444444444 0.04285714285714286 0  1 0.04285714285714286 0  0 0.05714285714285715 0  0.05555555555555555 0.05714285714285715 0  0.1111111111111111 0.05714285714285715 0  0.1666666666666667 0.05714285714285715 0  0.2222222222222222 0.05714285714285715 0  0.2777777777777778 0.05714285714285715 0  0.3333333333333333 0.05714285714285715 0  0.3888888888888889 0.05714285714285715 0  0.4444444444444444 0.05714285714285715 0  0.5 0.05714285714285715 0  0.5555555555555556 0.05714285714285715 0  0.6111111111111112 0.05714285714285715 0  0.6666666666666666 0.05714285714285715 0  0.7222222222222222 0.05714285714285715 0  0.7777777777777778 0.05714285714285715 0  0.8333333333333334 0.05714285714285715 0  0.8888888888888888 0.05714285714285715 0  0.9444444444444444 0.05714285714285715 0  1 0.05714285714285715 0  0 0.07142857142857142 0  0.05555555555555555 0.07142857142857142 0  0.1111111111111111 0.07142857142857142 0  0.1666666666666667 0.07142857142857142 0  0.2222222222222222 0.07142857142857142 0  0.2777777777777778 0.07142857142857142 0  0.3333333333333333 0.07142857142857142 0  0.3888888888888889 0.07142857142857142 0  0.4444444444444444 0.07142857142857142 0  0.5 0.07142857142857142 0  0.5555555555555556 0.07142857142857142 0  0.6111111111111112 0.07142857142857142 0  0.6666666666666666 0.07142857142857142 0  0.7222222222222222 0.07142857142857142 0  0.7777777777777778 0.07142857142857142 0  0.8333333333333334 0.07142857142857142 0  0.8888888888888888 0.07142857142857142 0  0.9444444444444444 0.07142857142857142 0  1 0.07142857142857142 0  0 0.08571428571428573 0  0.05555555555555555 0.08571428571428573 0  0.1111111111111111 0.08571428571428573 0  0.1666666666666667 0.08571428571428573 0  0.2222222222222222 0.08571428571428573 0  0.2777777777777778 0.08571428571428573 0  0.3333333333333333 0.08571428571428573 0  0.3888888888888889 0.08571428571428573 0  0.4444444444444444 0.08571428571428573 0  0.5 0.08571428571428573 0  0.5555555555555556 0.08571428571428573 0  0.6111111111111112 0.08571428571428573 0  0.6666666666666666 0.08571428571428573 0  0.7222222222222222 0.08571428571428573 0  0.7777777777777778 0.08571428571428573 0  0.8333333333333334 0.08571428571428573 0  0.8888888888888888 0.08571428571428573 0  0.9444444444444444 0.08571428571428573 0  1 0.08571428571428573 0  0 0.1 0  0.05555555555555555 0.1 0  0.1111111111111111 0.1 0  0.1666666666666667 0.1 0  0.2222222222222222 0.1 0  0.2777777777777778 0.1 0  0.3333333333333333 0.1 0  0.3888888888888889 0.1 0  0.4444444444444444 0.1 0  0.5 0.1 0  0.5555555555555556 0.1 0  0.6111111111111112 0.1 0  0.6666666666666666 0.1 0  0.7222222222222222 0.1 0  0.7777777777777778 0.1 0  0.8333333333333334 0.1 0  0.8888888888888888 0.1 0  0.9444444444444444 0.1 0  1 0.1 0  0 0 0.01  0.05555555555555555 0 0.01  0.1111111111111111 0 0.01  0.1666666666666667 0 0.01  0.2222222222222222 0 0.01  0.2777777777777778 0 0.01  0.3333333333333333 0 0.01  0.3888888888888889 0 0.01  0.4444444444444444 0 0.01  0.5 0 0.01  0.5555555555555556 0 0.01  0.6111111111111112 0 0.01  0.6666666666666666 0 0.01  0.7222222222222222 0 0.01  0.7777777777777778 0 0.01  0.8333333333333334 0 0.01  0.8888888888888888 0 0.01  0.9444444444444444 0 0.01  1 0 0.01  0 0.01428571428571429 0.01  0.05555555555555555 0.01428571428571429 0.01  0.1111111111111111 0.01428571428571429 0.01  0.1666666666666667 0.01428571428571429 0.01  0.2222222222222222 0.01428571428571429 0.01  0.2777777777777778 0.01428571428571429 0.01  0.3333333333333333 0.01428571428571429 0.01  0.3888888888888889 0.01428571428571429 0.01  0.4444444444444444 0.01428571428571429 0.01  0.5 0.01428571428571429 0.01  0.5555555555555556 0.01428571428571429 0.01  0.6111111111111112 0.01428571428571429 0.01  0.6666666666666666 0.01428571428571429 0.01  0.7222222222222222 0.01428571428571429 0.01  0.7777777777777778 0.01428571428571429 0.01  0.8333333333333334 0.01428571428571429 0.01  0.8888888888888888 0.01428571428571429 0.01  0.9444444444444444 0.01428571428571429 0.01  1 0.01428571428571429 0.01  0 0.02857142857142857 0.01  0.05555555555555555 0.02857142857142857 0.01  0.1111111111111111 0.02857142857142857 0.01  0.1666666666666667 0.02857142857142857 0.01  0.2222222222222222 0.02857142857142857 0.01  0.2777777777777778 0.02857142857142857 0.01  0.3333333333333333 0.02857142857142857 0.01  0.3888888888888889 0.02857142857142857 0.01  0.4444444444444444 0.02857142857142857 0.01  0.5 0.02857142857142857 0.01  0.5555555555555556 0.02857142857142857 0.01  0.6111111111111112 0.02857142857142857 0.01  0.6666666666666666 0.02857142857142857 0.01  0.7222222222222222 0.02857142857142857 0.01  0.7777777777777778 0.02857142857142857 0.01  0.8333333333333334 0.02857142857142857 0.01  0.8888888888888888 0.02857142857142857 0.01  0.9444444444444444 0.02857142857142857 0.01  1 0.02857142857142857 0.01  0 0.04285714285714286 0.01  0.05555555555555555 0.04285714285714286 0.01  0.1111111111111111 0.04285714285714286 0.01  0.1666666666666667 0.04285714285714286 0.01  0.2222222222222222 0.04285714285714286 0.01  0.2777777777777778 0.04285714285714286 0.01  0.3333333333333333 0.04285714285714286 0.01  0.3888888888888889 0.04285714285714286 0.01  0.4444444444444444 0.04285714285714286 0.01  0.5 0.04285714285714286 0.01  0.5555555555555556 0.04285714285714286 0.01  0.6111111111111112 0.04285714285714286 0.01  0.6666666666666666 0.04285714285714286 0.01  0.7222222222222222 0.04285714285714286 0.01  0.7777777777777778 0.04285714285714286 0.01  0.8333333333333334 0.04285714285714286 0.01  0.8888888888888888 0.04285714285714286 0.01  0.9444444444444444 0.04285714285714286 0.01  1 0.04285714285714286 0.01  0 0.05714285714285715 0.01  0.05555555555555555 0.05714285714285715 0.01  0.1111111111111111 0.05714285714285715 0.01  0.1666666666666667 0.05714285714285715 0.01  0.2222222222222222 0.05714285714285715 0.01  0.2777777777777778 0.05714285714285715 0.01  0.3333333333333333 0.05714285714285715 0.01  0.3888888888888889 0.05714285714285715 0.01  0.4444444444444444 0.05714285714285715 0.01  0.5 0.05714285714285715 0.01  0.5555555555555556 0.05714285714285715 0.01  0.6111111111111112 0.05714285714285715 0.01  0.6666666666666666 0.05714285714285715 0.01  0.7222222222222222 0.05714285714285715 0.01  0.7777777777777778 0.05714285714285715 0.01  0.8333333333333334 0.05714285714285715 0.01  0.8888888888888888 0.05714285714285715 0.01  0.9444444444444444 0.05714285714285715 0.01  1 0.05714285714285715 0.01  0 0.07142857142857142 0.01  0.05555555555555555 0.07142857142857142 0.01  0.1111111111111111 0.07142857142857142 0.01  0.1666666666666667 0.07142857142857142 0.01  0.2222222222222222 0.07142857142857142 0.01  0.2777777777777778 0.07142857142857142 0.01  0.3333333333333333 0.07142857142857142 0.01  0.3888888888888889 0.07142857142857142 0.01  0.4444444444444444 0.07142857142857142 0.01  0.5 0.07142857142857142 0.01  0.5555555555555556 0.07142857142857142 0.01  0.6111111111111112 0.07142857142857142 0.01  0.6666666666666666 0.07142857142857142 0.01  0.7222222222222222 0.07142857142857142 0.01  0.7777777777777778 0.07142857142857142 0.01  0.8333333333333334 0.07142857142857142 0.01  0.8888888888888888 0.07142857142857142 0.01  
[...]
<PointData  Vectors="f_36"> 
<DataArray  type="Float64"  Name="f_36"  NumberOfComponents="3" format="ascii">0.0000000000000000e+00 0.0000000000000000e+00 0.0000000000000000e+00  -3.4249046738944583e-03 1.0696626310809009e-02 -3.0704310167835414e-02  -1.6247587323503598e-03 1.5154433369263297e-02 -4.2519918800177824e-02  -5.9724684447525563e-04 1.6535004462763455e-02 -4.6277617506350274e-02  -2.4067113113455767e-04 1.6938438523600739e-02 -4.7509884878054666e-02  -1.4767685029602672e-04 1.7058348231617632e-02 -4.8068309566742594e-02  -1.3294552921312973e-04 1.7099715293308230e-02 -4.8482763088650009e-02  -1.3754590418293931e-04 1.7120585331095620e-02 -4.8887479221835228e-02  -1.4562542622347617e-04 1.7136551498656609e-02 -4.9312287287555934e-02  -1.5332316610317144e-04 1.7151740652201077e-02 -4.9760958670303793e-02  -1.5982027090843178e-04 1.7167246116752969e-02 -5.0231011015162509e-02  -1.6510255787803639e-04 1.7183561404834305e-02 -5.0718912947257555e-02  -1.6954747870884471e-04 1.7201853921095252e-02 -5.1221903602530386e-02  -1.7478059782034737e-04 1.7226425079732113e-02 -5.1741612907984492e-02  -1.8831120061122797e-04 1.7274106028546544e-02 -5.2291443730115572e-02  -2.4702755603434550e-04 1.7398636524732169e-02 -5.2975701814057849e-02  -4.6921590033285789e-04 1.7778984258999517e-02 -5.4093279067158002e-02  -1.0236105670411834e-03 1.8942402079359516e-02 -5.7383657725531778e-02  -1.0326565199967734e-03 2.1258879579812401e-02 -6.4977402065339640e-02  0.0000000000000000e+00 0.0000000000000000e+00 0.0000000000000000e+00  -3.7915114513168394e-03 9.0979962835180325e-03 -2.0400447878304521e-02  -1.7515113313973049e-03 1.3421566125318874e-02 -2.8313923656208703e-02  -6.1895313910097823e-04 1.4830696619471073e-02 -3.0736840752425349e-02  -2.4521583553809169e-04 1.5254834616599768e-02 -3.1585229066083430e-02  -1.4992685203147650e-04 1.5381400901163255e-02 -3.2034871608531391e-02  -1.3527780345530245e-04 1.5424565431250975e-02 -3.2419707220745483e-02  -1.4019050322411244e-04 1.5445759282821844e-02 -3.2815825664544065e-02  -1.4858641717524314e-04 1.5461686488406665e-02 -3.3237703584947119e-02  -1.5656930234991736e-04 1.5476746703826677e-02 -3.3684963802474537e-02  -1.6331029798894348e-04 1.5492073841344125e-02 -3.4153948910009634e-02  -1.6878847726470401e-04 1.5508079128683600e-02 -3.4640560652522599e-02  -1.7336642574098052e-04 1.5525532163337581e-02 -3.5141039264003832e-02  -1.7845152061150081e-04 1.5547513313803945e-02 -3.5652639381403978e-02  -1.9069022466162972e-04 1.5586384417309805e-02 -3.6176273691317255e-02  -2.4408201211788608e-04 1.5689700935571260e-02 -3.6751164299478438e-02  -4.7314987764953624e-04 1.6018413419037945e-02 -3.7583788447856467e-02  -1.0997710149790734e-03 1.7129146898928704e-02 -4.0008339357089660e-02  -8.0984943553034493e-04 1.9910026677449608e-02 -4.7153463787434492e-02  0.0000000000000000e+00 0.0000000000000000e+00 0.0000000000000000e+00  -2.4332810059687396e-03 5.7513414140088490e-03 -9.6420210762230649e-03  -1.1640204129490285e-03 8.6131146763444681e-03 -1.3371830610053299e-02  -4.2564751205391145e-04 9.5749388850893003e-03 -1.4535075381338752e-02  -1.9285074312742697e-04 9.8643461192377407e-03 -1.5043358852758235e-02  -1.3850632595495020e-04 9.9517089401985875e-03 -1.5405623479390441e-02  -1.3501868805319936e-04 9.9843809649803900e-03 -1.5770417276478141e-02  -1.4298485382030441e-04 1.0003180716429229e-02 -1.6163302609066923e-02  -1.5237024909105413e-04 1.0018995441041095e-02 -1.6586531368633490e-02  -1.6077165210026242e-04 1.0034554357227669e-02 -1.7036413386564454e-02  -1.6773288571477119e-04 1.0050500442205143e-02 -1.7508381965203927e-02  -1.7329726236456756e-04 1.0066978644706239e-02 -1.7997994829509773e-02  -1.7771970155862625e-04 1.0084185826851498e-02 -1.8501149276272357e-02  -1.8182453895987239e-04 1.0103148988937841e-02 -1.9013852881863951e-02  -1.8976033652922430e-04 1.0129104189639197e-02 -1.9531746928386211e-02  -2.2410469238377307e-04 1.0188496828153822e-02 -2.0058696565737992e-02  -3.7983356146233024e-04 1.0396460053858024e-02 -2.0673522400581720e-02  -8.6507775723315466e-04 1.1146163885616895e-02 -2.2100887643834541e-02  3.0104633926958027e-04 1.4016873294233236e-02 -2.6807901800189143e-02  0.0000000000000000e+00 0.0000000000000000e+00 0.0000000000000000e+00  -2.7754395337836570e-05 1.9949561712710106e-06 -4.1268545932855778e-05  -5.2705964545271227e-05 6.0912328097686258e-06 -1.5439567393230109e-04  -7.4975708832326636e-05 1.2296848127434472e-05 -3.3380188616551943e-04  -9.4622611131686275e-05 2.0323817658455366e-05 -5.7192359922794841e-04  -1.1179446283071987e-04 2.9953326563582849e-05 -8.6159541672627669e-04  -1.2664563810499291e-04 4.0977739617011629e-05 -1.1960811955383263e-03  -1.3933219327269544e-04 5.3202733515652823e-05 -1.5690796552673256e-03  -1.5001249553928665e-04 6.6447308195182166e-05 -1.9747304707714241e-03  -1.5884767299265742e-04 8.0544105535859830e-05 -2.4076215283412119e-03  -1.6600196381283728e-04 9.5339742874866429e-05 -2.8627972831465121e-03  -1.7164298894512442e-04 1.1069516916136338e-04 -3.3357679689570755e-03  -1.7594196313879066e-04 1.2648603652930010e-04 -3.8225194808349508e-03  -1.7907384801940342e-04 1.4260308224274472e-04 -4.3195237645448480e-03  -1.8121744831033616e-04 1.5895251903331157e-04 -4.8237495497310918e-03  -1.8255541837705125e-04 1.7545644991738324e-04 -5.3326732695293689e-03  -1.8327421678677745e-04 1.9205332354411852e-04 -5.8442897413837564e-03  -1.8356351380633632e-04 2.0869858548761821e-04 -6.3571228882734615e-03  -1.8362387581991515e-04 2.2536740032005624e-04 -6.8702372120172618e-03  0.0000000000000000e+00 0.0000000000000000e+00 0.0000000000000000e+00  -2.6020317709146163e-05 3.4803342072119451e-06 -4.0836733715490660e-05  -5.1793298045541843e-05 7.4277671439811693e-06 -1.5377551641252720e-04  -7.4825756669152306e-05 1.3484293405582487e-05 -3.3310749314356599e-04  -9.5156915026181488e-05 2.1364106743336661e-05 -5.7116489039963866e-04  -1.1294280915599139e-04 3.0855101844144509e-05 -8.6078063051165602e-04  -1.2834143184322760e-04 4.1750060305229253e-05 -1.1952173397610170e-03  -1.4151207676160840e-04 5.3854817170969099e-05 -1.5681731945847313e-03  -1.5261633181554816e-04 6.6988523906185161e-05 -1.9737873651710226e-03  -1.6181858832739978e-04 8.0983996877809962e-05 -2.4066472287935861e-03  -1.6928640745803416e-04 9.5688046175343506e-05 -2.8617967197821473e-03  -1.7519080413857960e-04 1.1096182724988219e-04 -3.3347455383602349e-03  -1.7970646700070692e-04 1.2668120864386278e-04 -3.8214790326419677e-03  -1.8301191909743167e-04 1.4273714976853090e-04 -4.3184685871869256e-03  -1.8528962193797987e-04 1.5903608432132918e-04 -4.8226823494832713e-03  -1.8672599941977738e-04 1.7550031535027130e-04 -5.3315961422745473e-03  -1.8751141495731454e-04 1.9206842389612994e-04 -5.8432040309109295e-03  -1.8783994663254533e-04 2.0869576470226685e-04 -6.3560289284014006e-03  -1.8791491667619932e-04 2.2535753873440093e-04 -6.8691328092729282e-03  0.0000000000000000e+00 0.0000000000000000e+00 0.0000000000000000e+00  -2.2710213535249461e-03 -6.2526974259086788e-03 -1.1060216130608006e-02  -1.0567789869930417e-03 -9.4434400684769333e-03 -1.4786957481693969e-02  -3.8910668580036730e-04 -1.0585206606567081e-02 -1.5865190511826433e-02  -1.8127673206389623e-04 -1.0924353813935956e-02 -1.6306716117027012e-02  -1.3868408992618735e-04 -1.1009430718395670e-02 -1.6647043189149766e-02  -1.4040552853641594e-04 -1.1023523717414531e-02 -1.7002904455550125e-02  -1.5093732291465782e-04 -1.1018484776005040e-02 -1.7392054007382411e-02  -1.6170330164752368e-04 -1.1007880994423703e-02 -1.7812978705865696e-02  -1.7096925159556354e-04 -1.0995251572422812e-02 -1.8261003640724693e-02  -1.7853456036772509e-04 -1.0981634894412272e-02 -1.8731262208875141e-02  -1.8454128717866150e-04 -1.0967505633856595e-02 -1.9219276085175502e-02  -1.8931719605819292e-04 -1.0953472175106949e-02 -1.9721122585312844e-02  -1.9387307956986858e-04 -1.0941400743505570e-02 -2.0234116936456444e-02  -2.0238148590228169e-04 -1.0938061568996823e-02 -2.0757585602400454e-02  -2.3220018107269984e-04 -1.0970509742645188e-02 -2.1317657250282025e-02  -3.5020383253718041e-04 -1.1132902375128907e-02 -2.1977447523861562e-02  -7.2299172737288326e-04 -1.1843307696508208e-02 -2.3527586283740697e-02  5.9560727887460433e-06 -1.4207130358858774e-02 -2.7196906873882608e-02  0.0000000000000000e+00 0.0000000000000000e+00 0.0000000000000000e+00  -3.7844094495158905e-03 -8.6341992582439110e-03 -2.2083428362962398e-02  -1.7087653980460979e-03 -1.3535437116658902e-02 -2.9864465101391954e-02  -5.7872277081479203e-04 -1.5374225565716890e-02 -3.2204125639921199e-02  -2.2947320550040007e-04 -1.5964414393965436e-02 -3.3000731490228252e-02  -1.5145079209446849e-04 -1.6127944614553743e-02 -3.3434407264085593e-02  -1.4538998867376214e-04 -1.6164250555772017e-02 -3.3814163598008158e-02  -1.5443384777892626e-04 -1.6164846499246151e-02 -3.4208822429818743e-02  -1.6504987053552947e-04 -1.6155231241249419e-02 -3.4630319750962597e-02  -1.7442925256003883e-04 -1.6142318644990501e-02 -3.5077547179312649e-02  -1.8214448347918361e-04 -1.6128093750831841e-02 -3.5546651594180058e-02  -1.8830388654298867e-04 -1.6113352279169227e-02 -3.6033563180352030e-02  -1.9330991102736362e-04 -1.6099011428099951e-02 -3.6534956525077676e-02  -1.9860420672093715e-04 -1.6087776118614592e-02 -3.7049906659429567e-02  -2.1035124781042732e-04 -1.6089573995525235e-02 -3.7586247322472954e-02  -2.5377635169089157e-04 -1.6140717970909293e-02 -3.8194610030334419e-02  -4.0892799582850761e-04 -1.6366415712709494e-02 -3.9074257130411592e-02  -9.3562209669558881e-04 -1.7285144228621197e-02 -4.1245205953588805e-02  -9.7085046932494532e-04 -2.0452630871327589e-02 -4.6634035054911080e-02  0.0000000000000000e+00 0.0000000000000000e+00 0.0000000000000000e+00  -4.3156033639253494e-03 -8.8698386196764522e-03 -3.0982730340369313e-02  -1.8788484913888925e-03 -1.4563653977975021e-02 -4.3017992435122089e-02  -5.9983141378965369e-04 -1.6754831802593614e-02 -4.6936311742798491e-02  -2.2899142341984910e-04 -1.7487781557530939e-02 -4.8265357193890440e-02  -1.5114881620487453e-04 -1.7703020935839163e-02 -4.8856451777616508e-02  -1.4688736690257384e-04 -1.7755828916750475e-02 -4.9281806309695204e-02  -1.5683958739559265e-04 -1.7761493120277822e-02 -4.9689380843703078e-02  -1.6795471451787770e-04 -1.7753454569986636e-02 -5.0114790843887737e-02  -1.7767056423529133e-04 -1.7741114498775249e-02 -5.0563444050006116e-02  -1.8563413214861430e-04 -1.7727176868927056e-02 -5.1033340432641232e-02  -1.9194445879338207e-04 -1.7712652880433589e-02 -5.1521077523148627e-02  -1.9689271910368222e-04 -1.7698551468456534e-02 -5.2024121653098027e-02  -2.0145282474414475e-04 -1.7687662412085799e-02 -5.2544018675546970e-02  -2.0993900024791112e-04 -1.7690118672777925e-02 -5.3098343504044250e-02  -2.4000424263963521e-04 -1.7742821532968158e-02 -5.3768737754742474e-02  -3.4191542135947128e-04 -1.7979838727693289e-02 -5.4879748463520617e-02  -6.4960291728271224e-04 -1.8871544482583092e-02 -5.7585896741748036e-02  -1.1593801376016460e-03 -2.2445473914976758e-02 -6.4640053037945663e-02  0.0000000000000000e+00 0.0000000000000000e+00 0.0000000000000000e+00  -1.2196154631805539e-03 4.3764101594455287e-03 -2.9928369579308639e-02  -7.1142837005145644e-04 6.5296089003896293e-03 -4.1954336662407624e-02  -2.7675555501489662e-04 7.1352144711225845e-03 -4.5711482304631672e-02  -1.1217793853823885e-04 7.3130378607478546e-03 -4.6933451772241078e-02  -6.7970493869909257e-05 7.3705412338480004e-03 -4.7486907156286354e-02  -6.0920715251375827e-05 7.3950008816932337e-03 -4.7899961101051082e-02  -6.3057344252072449e-05 7.4111115111502824e-03 -4.8304376157122457e-02  -6.6828372883846241e-05 7.4255760906976540e-03 -4.8729161863018955e-02  -7.0418254086499225e-05 7.4401465906926171e-03 -4.9177865834318393e-02  -7.3450984640822663e-05 7.4552247992891946e-03 -4.9647946954309442e-02  -7.5924522956261574e-05 7.4709272568241458e-03 -5.0135834544718989e-02  -7.8004550432367295e-05 7.4875599055707724e-03 -5.0638685501411734e-02  -8.0379812029258177e-05 7.5064288187197117e-03 -5.1157641832338112e-02  -8.5387769658125536e-05 7.5323907985497072e-03 -5.1705164445894652e-02  -1.0362279784133439e-04 7.5830153936347934e-03 -5.2375639063158480e-02  -1.4845638025468024e-04 7.7327479941826779e-03 -5.3465014393920922e-02  -1.4920541691416567e-04 8.3496534934411545e-03 -5.6623921454191158e-02  1.2792113625372908e-04 9.9756976474662425e-03 -6.4086024938034600e-02  0.0000000000000000e+00 0.0000000000000000e+00 0.0000000000000000e+00  -1.5763579701934432e-03 3.7397800584213982e-03 -1.9873046140161763e-02  -8.5304664083256463e-04 5.6241097789358641e-03 -2.7888228363918261e-02  -3.0549437867142268e-04 6.2231471716925786e-03 -3.0239677604345792e-02  -1.1977836803454702e-04 6.4076642080703929e-03 -3.1054792945457772e-02  -7.1665323254470364e-05 6.4682253012408979e-03 -3.1492222939893830e-02  -6.4092543135291864e-05 6.4936017039843117e-03 -3.1873742103822544e-02  -6.6299960038003261e-05 6.5099265407540024e-03 -3.2269089677700390e-02  -7.0268339408642249e-05 6.5244275545373901e-03 -3.2690889304842867e-02  -7.4063733129104014e-05 6.5389936697663464e-03 -3.3138241785016800e-02  -7.7279521886112102e-05 6.5540548482649645e-03 -3.3607353301550354e-02  -7.9909048988764891e-05 6.5697195013642929e-03 -3.4094068773501074e-02  -8.2135903211718849e-05 6.5862461196164535e-03 -3.4594544693245563e-02  -8.4590375355163890e-05 6.6047883353810288e-03 -3.5105731771637519e-02  -8.9849394405656043e-05 6.6297761797751171e-03 -3.5627733246552051e-02  -1.1020692352964969e-04 6.6770463812807117e-03 -3.6194744126182059e-02  -1.9252840922760159e-04 6.8057827342186865e-03 -3.7007955173284812e-02  -3.5550899130392120e-04 7.3085372056242541e-03 -3.9351546554084932e-02  5.5904986030064902e-05 8.9240072185453045e-03 -4.6592843991335002e-02  0.0000000000000000e+00 0.0000000000000000e+00 0.0000000000000000e+00  -1.1031170622418491e-03 2.2277505672184642e-03 -9.0193705229761993e-03  -6.0574010110446335e-04 3.3475216701849080e-03 -1.2550992568487785e-02  -2.1877734650738590e-04 3.7519519938989006e-03 -1.3531753894168545e-02  -9.6548528577675388e-05 3.8828962643537262e-03 -1.3970433522130095e-02  -6.7552432092948383e-05 3.9281929479007827e-03 -1.4309098853092731e-02  -6.5359161738934334e-05 3.9493078336867099e-03 -1.4666972733858492e-02  -6.9107792568372573e-05 3.9644184857417141e-03 -1.5057664754327535e-02  -7.3649843419275541e-05 3.9785707359962612e-03 -1.5480007507549954e-02  -7.7739034092563715e-05 3.9930266174232542e-03 -1.5929323901278346e-02  -8.1139923687516974e-05 4.0080330594342408e-03 -1.6400788101969616e-02  -8.3874357207911461e-05 4.0236024910739092e-03 -1.6889862516190297e-02  -8.6078774617363117e-05 4.0398101215034119e-03 -1.7392310321189337e-02  -8.8163155488168649e-05 4.0572205637079400e-03 -1.7903675909515047e-02  -9.1978188878757354e-05 4.0784298021228965e-03 -1.8418042100710495e-02  -1.0719085045363453e-04 4.1137883002539278e-03 -1.8933871254462414e-02  -1.7574131990532444e-04 4.2029924121475696e-03 -1.9520609400052520e-02  -3.6894396556579490e-04 4.4841117394951247e-03 -2.0868850748211515e-02  4.3611589469717740e-04 5.7406345755986292e-03 -2.5516054310193222e-02  0.0000000000000000e+00 0.0000000000000000e+00 0.0000000000000000e+00  -1.3114264985946900e-05 1.8276642570116595e-06 -4.0117786911223278e-05  -2.5670783620563447e-05 5.8732042718506225e-06 -1.5334788826578812e-04  -3.6783942922835979e-05 1.1997926586925860e-05 -3.3286618411477987e-04  -4.6590112989787393e-05 1.9956287242386330e-05 -5.7109896403347124e-04  -5.5166706938827559e-05 2.9523984424346102e-05 -8.6087563618027381e-04  -6.2590435752927348e-05 4.0493015372609314e-05 -1.1954596923729253e-03  -6.8938431948396671e-05 5.2668687940047374e-05 -1.5685497259792965e-03  -7.4288929134474252e-05 6.5869673630525373e-05 -1.9742852999994841e-03  -7.8721505377533856e-05 7.9928286897358068e-05 -2.4072541769649511e-03  -8.2317259935023828e-05 9.4690812852511324e-05 -2.8625006754951685e-03  -8.5158950692216628e-05 1.1001786156430949e-04 -3.3355348819556624e-03  -8.7331101099634315e-05 1.2578473843861306e-04 -3.8223425354361007e-03  -8.8920078887766879e-05 1.4188182428838674e-04 -4.3193954192748338e-03  -9.0014147942696270e-05 1.5821496077888348e-04 -4.8236620954670842e-03  -9.0703483413440803e-05 1.7470584427241897e-04 -5.3326188229688067e-03  -9.1080150262538579e-05 1.9129243777174851e-04 -5.8442602246742579e-03  -9.1237676306580746e-05 2.0792955000370592e-04 -6.3571098870825763e-03  -9.1272922738191916e-05 2.2459038061019857e-04 -6.8702275857704812e-03  0.0000000000000000e+00 0.0000000000000000e+00 0.0000000000000000e+00  -1.3125028740644691e-05 2.9137489051296884e-06 -3.9459694083242815e-05  -2.6417922229855028e-05 6.7579858438407394e-06 -1.5262517607525351e-04  -3.8097285048560545e-05 1.2776535317068343e-05 -3.3208370240532525e-04  -4.8407181294752037e-05 2.0638884976149943e-05 -5.7026154253901531e-04  -5.7428461965156571e-05 3.0116963571775990e-05 -8.5999011502864745e-04  -6.5241377271510820e-05 4.1002275635812397e-05 -1.1945326005481643e-03  -7.1926409948355809e-05 5.3100126110732191e-05 -1.5675871649009176e-03  -7.7565196046668435e-05 6.6229270379436253e-05 -1.9732928793249863e-03  -8.2240789912182131e-05 8.0222131333536581e-05 -2.4062369962253600e-03  -8.6037848341049850e-05 9.4925115746824008e-05 -2.8614633091071846e-03  -8.9042774402978055e-05 1.1019896461977756e-04 -3.3344813649780793e-03  -9.1343829011331231e-05 1.2591912106817843e-04 -3.8212763490127811e-03  -9.3031213032507390e-05 1.4197610811629539e-04 -4.3183194754260910e-03  -9.4197121696539042e-05 1.5827591134884487e-04 -4.8225787158899898e-03  -9.4935765505906017e-05 1.7474036604871423e-04 -5.3315297110316275e-03  -9.5343357319397010e-05 1.9130754657937634e-04 -5.8431663378182806e-03  -9.5517921227486575e-05 2.0793218249899050e-04 -6.3560113227436755e-03  -9.5560590684321185e-05 2.2458708449966258e-04 -6.8691247645738642e-03  0.0000000000000000e+00 0.0000000000000000e+00 0.0000000000000000e+00  -1.1538555582715580e-03 -2.1839457783278883e-03 -1.0105635700739005e-02  -5.9404093203131812e-04 -3.2307924718600681e-03 -1.3154513205164716e-02  -2.1806088642350237e-04 -3.6381438804996948e-03 -1.3871654864897458e-02  -9.6970935565420953e-05 -3.7589648417579169e-03 -1.4183317618313960e-02  -7.2001772767976431e-05 -3.7842639398847607e-03 -1.4485138069322044e-02  -7.2783648336458817e-05 -3.7821273783182050e-03 -1.4831071542507705e-02  -7.8475607849925054e-05 -3.7721911481847091e-03 -1.5218116087924416e-02  -8.4213814772112139e-05 -3.7596075811476238e-03 -1.5638950139196729e-02  -8.9099427704235915e-05 -3.7457658297414070e-03 -1.6087400869114001e-02  -9.3060675347847951e-05 -3.7311322972312360e-03 -1.6558218091013769e-02  -9.6177091579470174e-05 -3.7159611229503151e-03 -1.7046801232750500e-02  -9.8580731938074503e-05 -3.7005396888021560e-03 -1.7549121651873875e-02  -1.0064544816280907e-04 -3.6855553732454858e-03 -1.8062085020309010e-02  -1.0386002608223151e-04 -3.6734190405846917e-03 -1.8583887792160827e-02  -1.1465756239044729e-04 -3.6727643042368213e-03 -1.9133341862807823e-02  -1.5886660619349543e-04 -3.7185213258176439e-03 -1.9759695644825329e-02  -3.1838313656753657e-04 -3.9877710662662106e-03 -2.1124636099321383e-02  2.3278072998381523e-04 -4.8462373802820686e-03 -2.4106055400626065e-02  0.0000000000000000e+00 0.0000000000000000e+00 0.0000000000000000e+00  -1.6642260048999210e-03 -3.6480399662793374e-03 -2.1428627982338813e-02  -8.7211319838860068e-04 -5.7812790534227040e-03 -2.9038501874349639e-02  -2.9083924817714673e-04 -6.6313311345711336e-03 -3.1140174510259050e-02  -1.1247249758737399e-04 -6.9079574786601100e-03 -3.1831120101589679e-02  -7.5841487215885564e-05 -6.9804134719178125e-03 -3.2228745359106262e-02  -7.5131866847974121e-05 -6.9912829284660563e-03 -3.2598067518930109e-02  -8.0956141186905729e-05 -6.9847527457799615e-03 -3.2990006335959214e-02  -8.6960038049359962e-05 -6.9730156924525709e-03 -3.3410891294170908e-02  -9.2059790019215595e-05 -6.9593464096951935e-03 