<?xml version="1.0"?>
<VTKFile type="UnstructuredGrid"  version="0.1"  >
<UnstructuredGrid>
<Piece  NumberOfPoints="760" NumberOfCells="3024">
<Points>
<DataArray  type="Float64"  NumberOfComponents="3"  format="ascii">0 0 0  0.05555555555555555 0 0  0.1111111111111111 0 0  0.1666666666666667 0 0  0.2222222222222222 0 0  0.2777777777777778 0 0  0.3333333333333333 0 0  0.3888888888888889 0 0  0.4444444444444444 0 0  0.5 0 0  0.5555555555555556 0 0  0.6111111111111112 0 0  0.6666666666666666 0 0  0.7222222222222222 0 0  0.7777777777777778 0 0  0.8333333333333334 0 0  0.8888888888888888 0 0  0.9444444444444444 0 0  1 0 0  0 0.01428571428571429 0  0.05555555555555555 0.01428571428571429 0  0.1111111111111111 0.01428571428571429 0  0.1666666666666667 0.01428571428571429 0  0.2222222222222222 0.01428571428571429 0  0.2777777777777778 0.01428571428571429 0  0.3333333333333333 0.01428571428571429 0  0.3888888888888889 0.01428571428571429 0  0.4444444444444444 0.01428571428571429 0  0.5 0.01428571428571429 0  0.5555555555555556 0.01428571428571429 0  0.6111111111111112 0.01428571428571429 0  0.6666666666666666 0.01428571428571429 0  0.7222222222222222 0.01428571428571429 0  0.7777777777777778 0.01428571428571429 0  0.8333333333333334 0.01428571428571429 0  0.8888888888888888 0.01428571428571429 0  0.9444444444444444 0.01428571428571429 0  1 0.01428571428571429 0  0 0.02857142857142857 0  0.05555555555555555 0.02857142857142857 0  0.1111111111111111 0.02857142857142857 0  0.1666666666666667 0.02857142857142857 0  0.2222222222222222 0.02857142857142857 0  0.2777777777777778 0.02857142857142857 0  0.3333333333333333 0.02857142857142857 0  0.3888888888888889 0.02857142857142857 0  0.4444444444444444 0.02857142857142857 0  0.5 0.02857142857142857 0  0.5555555555555556 0.02857142857142857 0  0.6111111111111112 0.02857142857142857 0  0.6666666666666666 0.02857142857142857 0  0.7222222222222222 0.02857142857142857 0  0.7777777777777778 0.02857142857142857 0  0.8333333333333334 0.02857142857142857 0  0.8888888888888888 0.02857142857142857 0  0.9444444444444444 0.02857142857142857 0  1 0.02857142857142857 0  0 0.04285714285714286 0  0.05555555555555555 0.04285714285714286 0  0.1111111111111111 0.04285714285714286 0  0.1666666666666667 0.04285714285714286 0  0.2222222222222222 0.04285714285714286 0  0.2777777777777778 0.04285714285714286 0  0.3333333333333333 0.04285714285714286 0  0.3888888888888889 0.04285714285714286 0  0.4444444444444444 0.04285714285714286 0  0.5 0.04285714285714286 0  0.5555555555555556 0.04285714285714286 0  0.6111111111111112 0.04285714285714286 0  0.6666666666666666 0.04285714285714286 0  0.7222222222222222 0.04285714285714286 0  0.7777777777777778 0.04285714285714286 0  0.8333333333333334 0.04285714285714286 0  0.8888888888888888 0.04285714285714286 0  0.9444444444444444 0.04285714285714286 0  1 0.04285714285714286 0  0 0.05714285714285715 0  0.05555555555555555 0.05714285714285715 0  0.1111111111111111 0.05714285714285715 0  0.1666666666666667 0.05714285714285715 0  0.2222222222222222 0.05714285714285715 0  0.2777777777777778 0.05714285714285715 0  0.3333333333333333 0.05714285714285715 0  0.3888888888888889 0.05714285714285715 0  0.4444444444444444 0.05714285714285715 0  0.5 0.05714285714285715 0  0.5555555555555556 0.05714285714285715 0  0.6111111111111112 0.05714285714285715 0  0.6666666666666666 0.05714285714285715 0  0.7222222222222222 0.05714285714285715 0  0.7777777777777778 0.05714285714285715 0  0.8333333333333334 0.05714285714285715 0  0.8888888888888888 0.05714285714285715 0  0.9444444444444444 0.05714285714285715 0  1 0.05714285714285715 0  0 0.07142857142857142 0  0.05555555555555555 0.07142857142857142 0  0.1111111111111111 0.07142857142857142 0  0.1666666666666667 0.07142857142857142 0  0.2222222222222222 0.07142857142857142 0  0.2777777777777778 0.07142857142857142 0  0.3333333333333333 0.07142857142857142 0  0.3888888888888889 0.07142857142857142 0  0.4444444444444444 0.07142857142857142 0  0.5 0.07142857142857142 0  0.5555555555555556 0.07142857142857142 0  0.6111111111111112 0.07142857142857142 0  0.6666666666666666 0.07142857142857142 0  0.7222222222222222 0.07142857142857142 0  0.7777777777777778 0.07142857142857142 0  0.8333333333333334 0.07142857142857142 0  0.8888888888888888 0.07142857142857142 0  0.9444444444444444 0.07142857142857142 0  1 0.07142857142857142 0  0 0.08571428571428573 0  0.05555555555555555 0.08571428571428573 0  0.1111111111111111 0.08571428571428573 0  0.1666666666666667 0.08571428571428573 0  0.2222222222222222 0.08571428571428573 0  0.2777777777777778 0.08571428571428573 0  0.3333333333333333 0.08571428571428573 0  0.3888888888888889 0.08571428571428573 0  0.4444444444444444 0.08571428571428573 0  0.5 0.08571428571428573 0  0.5555555555555556 0.08571428571428573 0  0.6111111111111112 0.08571428571428573 0  0.6666666666666666 0.08571428571428573 0  0.7222222222222222 0.08571428571428573 0  0.7777777777777778 0.08571428571428573 0  0.8333333333333334 0.08571428571428573 0  0.8888888888888888 0.08571428571428573 0  0.9444444444444444 0.08571428571428573 0  1 0.08571428571428573 0  0 0.1 0  0.05555555555555555 0.1 0  0.1111111111111111 0.1 0  0.1666666666666667 0.1 0  0.2222222222222222 0.1 0  0.2777777777777778 0.1 0  0.3333333333333333 0.1 0  0.3888888888888889 0.1 0  0.4444444444444444 0.1 0  0.5 0.1 0  0.5555555555555556 0.1 0  0.6111111111111112 0.1 0  0.6666666666666666 0.1 0  0.7222222222222222 0.1 0  0.7777777777777778 0.1 0  0.8333333333333334 0.1 0  0.8888888888888888 0.1 0  0.9444444444444444 0.1 0  1 0.1 0  0 0 0.01  0.05555555555555555 0 0.01  0.1111111111111111 0 0.01  0.1666666666666667 0 0.01  0.2222222222222222 0 0.01  0.2777777777777778 0 0.01  0.3333333333333333 0 0.01  0.3888888888888889 0 0.01  0.4444444444444444 0 0.01  0.5 0 0.01  0.5555555555555556 0 0.01  0.6111111111111112 0 0.01  0.6666666666666666 0 0.01  0.7222222222222222 0 0.01  0.7777777777777778 0 0.01  0.8333333333333334 0 0.01  0.8888888888888888 0 0.01  0.9444444444444444 0 0.01  1 0 0.01  0 0.01428571428571429 0.01  0.05555555555555555 0.01428571428571429 0.01  0.1111111111111111 0.01428571428571429 0.01  0.1666666666666667 0.01428571428571429 0.01  0.2222222222222222 0.01428571428571429 0.01  0.2777777777777778 0.01428571428571429 0.01  0.3333333333333333 0.01428571428571429 0.01  0.3888888888888889 0.01428571428571429 0.01  0.4444444444444444 0.01428571428571429 0.01  0.5 0.01428571428571429 0.01  0.5555555555555556 0.01428571428571429 0.01  0.6111111111111112 0.01428571428571429 0.01  0.6666666666666666 0.01428571428571429 0.01  0.7222222222222222 0.01428571428571429 0.01  0.7777777777777778 0.01428571428571429 0.01  0.8333333333333334 0.01428571428571429 0.01  0.8888888888888888 0.01428571428571429 0.01  0.9444444444444444 0.01428571428571429 0.01  1 0.01428571428571429 0.01  0 0.02857142857142857 0.01  0.05555555555555555 0.02857142857142857 0.01  0.1111111111111111 0.02857142857142857 0.01  0.1666666666666667 0.02857142857142857 0.01  0.2222222222222222 0.02857142857142857 0.01  0.2777777777777778 0.02857142857142857 0.01  0.3333333333333333 0.02857142857142857 0.01  0.3888888888888889 0.02857142857142857 0.01  0.4444444444444444 0.02857142857142857 0.01  0.5 0.02857142857142857 0.01  0.5555555555555556 0.02857142857142857 0.01  0.6111111111111112 0.02857142857142857 0.01  0.6666666666666666 0.02857142857142857 0.01  0.7222222222222222 0.02857142857142857 0.01  0.7777777777777778 0.02857142857142857 0.01  0.8333333333333334 0.02857142857142857 0.01  0.8888888888888888 0.02857142857142857 0.01  0.9444444444444444 0.02857142857142857 0.01  1 0.02857142857142857 0.01  0 0.04285714285714286 0.01  0.05555555555555555 0.04285714285714286 0.01  0.1111111111111111 0.04285714285714286 0.01  0.1666666666666667 0.04285714285714286 0.01  0.2222222222222222 0.04285714285714286 0.01  0.2777777777777778 0.04285714285714286 0.01  0.3333333333333333 0.04285714285714286 0.01  0.3888888888888889 0.04285714285714286 0.01  0.4444444444444444 0.04285714285714286 0.01  0.5 0.04285714285714286 0.01  0.5555555555555556 0.04285714285714286 0.01  0.6111111111111112 0.04285714285714286 0.01  0.6666666666666666 0.04285714285714286 0.01  0.7222222222222222 0.04285714285714286 0.01  0.7777777777777778 0.04285714285714286 0.01  0.8333333333333334 0.04285714285714286 0.01  0.8888888888888888 0.04285714285714286 0.01  0.9444444444444444 0.04285714285714286 0.01  1 0.04285714285714286 0.01  0 0.05714285714285715 0.01  0.05555555555555555 0.05714285714285715 0.01  0.1111111111111111 0.05714285714285715 0.01  0.1666666666666667 0.05714285714285715 0.01  0.2222222222222222 0.05714285714285715 0.01  0.2777777777777778 0.05714285714285715 0.01  0.3333333333333333 0.05714285714285715 0.01  0.3888888888888889 0.05714285714285715 0.01  0.4444444444444444 0.05714285714285715 0.01  0.5 0.05714285714285715 0.01  0.5555555555555556 0.05714285714285715 0.01  0.6111111111111112 0.05714285714285715 0.01  0.6666666666666666 0.05714285714285715 0.01  0.7222222222222222 0.05714285714285715 0.01  0.7777777777777778 0.05714285714285715 0.01  0.8333333333333334 0.05714285714285715 0.01  0.8888888888888888 0.05714285714285715 0.01  0.9444444444444444 0.05714285714285715 0.01  1 0.05714285714285715 0.01  0 0.07142857142857142 0.01  0.05555555555555555 0.07142857142857142 0.01  0.1111111111111111 0.07142857142857142 0.01  0.1666666666666667 0.07142857142857142 0.01  0.2222222222222222 0.07142857142857142 0.01  0.2777777777777778 0.07142857142857142 0.01  0.3333333333333333 0.07142857142857142 0.01  0.3888888888888889 0.07142857142857142 0.01  0.4444444444444444 0.07142857142857142 0.01  0.5 0.07142857142857142 0.01  0.5555555555555556 0.07142857142857142 0.01  0.6111111111111112 0.07142857142857142 0.01  0.6666666666666666 0.07142857142857142 0.01  0.7222222222222222 0.07142857142857142 0.01  0.7777777777777778 0.07142857142857142 0.01  0.8333333333333334 0.07142857142857142 0.01  0.8888888888888888 0.07142857142857142 0.01  
[...]
<PointData  Vectors="f_36"> 
<DataArray  type="Float64"  Name="f_36"  NumberOfComponents="3" format="ascii">0.0000000000000000e+00 0.0000000000000000e+00 0.0000000000000000e+00  3.7644358659091972e-03 -7.5992339979319874e-03 1.8379524576514473e-02  2.9465387443171564e-03 -1.3184753154839225e-02 3.7167408522229550e-02  5.6543588585999537e-04 -1.5065384554729120e-02 4.4172689452195574e-02  -2.8052270476840575e-04 -1.4686875877541528e-02 4.1978238772707017e-02  5.8706677224382491e-07 -1.4435672821893626e-02 4.1448551110162990e-02  8.5422845495793681e-05 -1.4418366025796298e-02 4.1909704767752361e-02  6.9473429716182333e-05 -1.4354927821692075e-02 4.1976921929861299e-02  8.2964787867258021e-05 -1.4277470245556019e-02 4.2161500067670804e-02  8.8877264837792331e-05 -1.4200073399501238e-02 4.2352188148905213e-02  8.9769441095600055e-05 -1.4117435090982858e-02 4.2554426050296044e-02  8.3775351690753454e-05 -1.4030436949419670e-02 4.2751396579797957e-02  1.3342548537162500e-04 -1.3970427343796542e-02 4.2941579583944761e-02  7.4249852768248526e-05 -1.3868092345353770e-02 4.3378681081916372e-02  -3.3407350153364170e-05 -1.3601758890100112e-02 4.2960817164643172e-02  4.2955797949357935e-04 -1.3746370861530360e-02 4.2757610931804746e-02  5.7045946839797649e-04 -1.4642273462695128e-02 4.6543387919339506e-02  -4.3097948380098545e-04 -1.5266665187911326e-02 4.9204742337561447e-02  -1.5920743702419029e-03 -1.6182751967827223e-02 4.8423981177639082e-02  0.0000000000000000e+00 0.0000000000000000e+00 0.0000000000000000e+00  3.6572929007755877e-03 -6.5041589087412397e-03 1.1608368449789594e-02  3.0640021275120922e-03 -1.1800355057424024e-02 2.5204418493736346e-02  7.3732693168150913e-04 -1.3821667015671212e-02 3.0490146409335669e-02  -3.0737002117628046e-04 -1.3577311141538002e-02 2.8662364494123901e-02  -2.3410190010663045e-05 -1.3330339908902750e-02 2.8280424554638806e-02  9.9330207067122739e-05 -1.3314888432187425e-02 2.8780796978229158e-02  7.0763414203088549e-05 -1.3264015292959041e-02 2.8930385656596242e-02  8.4316636290929190e-05 -1.3200357354141873e-02 2.9183345090024793e-02  9.0717385117877617e-05 -1.3137835601948065e-02 2.9453945828494699e-02  9.3061595514105539e-05 -1.3070760330153582e-02 2.9736328638967732e-02  8.9196571925904210e-05 -1.2999327535054235e-02 3.0023695572451423e-02  1.2434903888531025e-04 -1.2950281748302867e-02 3.0288191604342492e-02  8.9192077977408055e-05 -1.2873530455737197e-02 3.0791221686473667e-02  -1.6906144222020238e-05 -1.2634723182838583e-02 3.0642168355005946e-02  3.5057251648835838e-04 -1.2719749398990839e-02 3.0381610757917541e-02  6.3637929028264630e-04 -1.3529883751970345e-02 3.3317165753793114e-02  -7.2360247643287013e-05 -1.4181558026512029e-02 3.5624333771116894e-02  -1.6100107460232061e-03 -1.5482888272576472e-02 3.5785029497205065e-02  0.0000000000000000e+00 0.0000000000000000e+00 0.0000000000000000e+00  2.2435545736350336e-03 -4.0144090544662163e-03 4.9797299483537996e-03  1.9909926415201157e-03 -7.6778960319421954e-03 1.1744635127267004e-02  5.5808195286363629e-04 -9.2251655618318176e-03 1.4561376953229184e-02  -1.7148098235874776e-04 -9.0736947221024961e-03 1.3641214102868768e-02  7.2366644503553635e-06 -8.8865409133658587e-03 1.3538362237516746e-02  1.0693391908400931e-04 -8.8901806862464860e-03 1.3973099423288515e-02  8.8179369029833883e-05 -8.8694160273586672e-03 1.4211328639976406e-02  9.9211956861854124e-05 -8.8413508240743240e-03 1.4517427032979528e-02  1.0641027246463677e-04 -8.8159648617508711e-03 1.4848742031214451e-02  1.1034402883353811e-04 -8.7883469878820321e-03 1.5193324709726192e-02  1.1091907982603996e-04 -8.7574558655405168e-03 1.5551874315910097e-02  1.2861332905674750e-04 -8.7390254484008764e-03 1.5892765815821129e-02  1.1265694749267536e-04 -8.7154738969442459e-03 1.6377995889192157e-02  5.1311487959206939e-05 -8.5647349903328843e-03 1.6546341806051936e-02  2.5378503143015549e-04 -8.5830204449812830e-03 1.6521586771104695e-02  4.7831134228420205e-04 -9.1615984789905729e-03 1.8214042558467796e-02  2.0343514518295636e-04 -9.6373286514644003e-03 1.9686727306261125e-02  -1.7224666434821601e-03 -1.1368091737735888e-02 2.0450703595765451e-02  0.0000000000000000e+00 0.0000000000000000e+00 0.0000000000000000e+00  2.2428964591099628e-05 -1.9282552401994797e-06 3.3533149130083959e-05  4.2520514551649538e-05 -6.1508834569900510e-06 1.2528606728042104e-04  6.0358704785899238e-05 -1.2640748352912077e-05 2.7046617395074039e-04  7.6019380250849612e-05 -2.1127961358232207e-05 4.6272648331406645e-04  8.9647968780724727e-05 -3.1398956609134320e-05 6.9616088303361447e-04  1.0138150347157403e-04 -4.3248183058791063e-05 9.6524466236615994e-04  1.1135750202182141e-04 -5.6476686526466521e-05 1.2648299411424460e-03  1.1971539143792853e-04 -7.0893468583751865e-05 1.5901600945683401e-03  1.2659510343907392e-04 -8.6317623993488072e-05 1.9368691050349026e-03  1.3213750677608740e-04 -1.0257898359790903e-04 2.3009846831948638e-03  1.3648447074342748e-04 -1.1951932764689317e-04 2.6789314581168230e-03  1.3977889546398255e-04 -1.3699363826077531e-04 3.0675341891472441e-03  1.4216443513074149e-04 -1.5487134722192897e-04 3.4640211491027716e-03  1.4378661567112465e-04 -1.7303825645691807e-04 3.8660260825704334e-03  1.4479123432655828e-04 -1.9139752520585949e-04 4.2715985362618055e-03  1.4531928622235057e-04 -2.0986994696011371e-04 4.6791961687583329e-03  1.4551848439350661e-04 -2.2839650824564692e-04 5.0876604051961960e-03  1.4555433660267878e-04 -2.4694373795669836e-04 5.4962832525338873e-03  0.0000000000000000e+00 0.0000000000000000e+00 0.0000000000000000e+00  2.1193688729067814e-05 -3.1308401331428182e-06 3.3181747452214319e-05  4.2107261415674300e-05 -7.2266915331143311e-06 1.2477504205619049e-04  6.0708665698761024e-05 -1.3590948390663135e-05 2.6988610879772603e-04  7.7055726161566059e-05 -2.1956920245023058e-05 4.6208548503466759e-04  9.1303148111123047e-05 -3.2114506217534611e-05 6.9546665436541184e-04  1.0359047372308585e-04 -4.3858060360302164e-05 9.6450344887454725e-04  1.1405669286000110e-04 -5.6989018900647512e-05 1.2640474822769761e-03  1.2284359612159683e-04 -7.1316424241087836e-05 1.5893417713172256e-03  1.3009370017521944e-04 -8.6659423209212749e-05 1.9360198652767029e-03  1.3595070867560122e-04 -1.0284791821086247e-04 2.3001090541647689e-03  1.4055963840085270e-04 -1.1972376087882017e-04 2.6780335196171590e-03  1.4406686973852072e-04 -1.3714199701173114e-04 3.0666175672627669e-03  1.4661996335198603e-04 -1.5497213259893684e-04 3.4630889939005352e-03  1.4836844667871619e-04 -1.7310013803515265e-04 3.8650810484425163e-03  1.4946299803880297e-04 -1.9142886656320425e-04 4.2706428252914383e-03  1.5005021722445480e-04 -2.0987881708349354e-04 4.6782313325123594e-03  1.5028129477684279e-04 -2.2839224563913903e-04 5.0866870581236867e-03  1.5032660977348702e-04 -2.4693482524637810e-04 5.4953009083247798e-03  0.0000000000000000e+00 0.0000000000000000e+00 0.0000000000000000e+00  2.4178422414562828e-03 4.3243240145658087e-03 6.9027745680249964e-03  1.7883014572763947e-03 8.3182808136594826e-03 1.3901228800687712e-02  3.4506766693190863e-04 1.0221586440773716e-02 1.6063849935336768e-02  -1.3725789553570769e-04 1.0146826385276754e-02 1.4942129751823782e-02  4.7193497309317974e-05 9.9145861851198513e-03 1.4988644784531128e-02  1.0583718308434694e-04 9.8847344720965659e-03 1.5370446050123884e-02  9.9545613125514928e-05 9.8164010156138563e-03 1.5589410602738515e-02  1.1047955230977299e-04 9.7445905313643839e-03 1.5900688550877694e-02  1.1729316600804191e-04 9.6730984329652155e-03 1.6220649071828842e-02  1.2179861287559689e-04 9.5975619258813136e-03 1.6557444206452446e-02  1.2147559566389986e-04 9.5151619663397542e-03 1.6903862407811082e-02  1.4358380187810927e-04 9.4234312657823262e-03 1.7250463606843642e-02  1.1439820059060773e-04 9.3629978139358489e-03 1.7704150452267999e-02  3.7392451906413173e-05 9.2268210959453728e-03 1.7800309117146796e-02  2.6680692647307428e-04 9.0947495243855671e-03 1.7811438167322374e-02  4.2054252521258641e-04 9.4946759445707300e-03 1.9491550680345950e-02  2.5892887869935558e-05 1.0188734011246713e-02 2.0859575730149744e-02  -1.1078529448434538e-03 1.1724741270337551e-02 2.0475919315331732e-02  0.0000000000000000e+00 0.0000000000000000e+00 0.0000000000000000e+00  3.8254358925892675e-03 5.6177984469161996e-03 1.3460490018934063e-02  2.9795925904816619e-03 1.1327092685413109e-02 2.7099806860632247e-02  5.8533747897093638e-04 1.4279012149906971e-02 3.1791722563633100e-02  -3.1900860083840580e-04 1.4380354331645969e-02 2.9793664929162217e-02  8.3405041551491125e-06 1.4064445939953400e-02 2.9548113952350154e-02  1.2069439144293352e-04 1.4010798727224666e-02 3.0017392517383917e-02  9.5754611323685662e-05 1.3913509391328158e-02 3.0145078496421729e-02  1.0805095335587674e-04 1.3802656260830029e-02 3.0396270455112631e-02  1.1492170118820866e-04 1.3692283808041276e-02 3.0653971494562660e-02  1.1947893041645439e-04 1.3576676745502858e-02 3.0923378604099210e-02  1.1695051019093645e-04 1.3451171476666177e-02 3.1199735506847143e-02  1.4605797270932875e-04 1.3306224421476043e-02 3.1451324454661249e-02  1.1161837159545669e-04 1.3213925876967259e-02 3.1904579457511732e-02  -1.7852699195573155e-05 1.3053252444911326e-02 3.1808432586794583e-02  3.0761467723145055e-04 1.2859207637141679e-02 3.1449086668611854e-02  5.7481231236999159e-04 1.3337589119306281e-02 3.4059327021124491e-02  -6.9493317130293346e-05 1.4358701672747328e-02 3.6375451913023847e-02  -1.0262023902159823e-03 1.6747370223943001e-02 3.5698032439464081e-02  0.0000000000000000e+00 0.0000000000000000e+00 0.0000000000000000e+00  3.9178358010868129e-03 5.5075679102930559e-03 1.8384289122207680e-02  3.3452971547053264e-03 1.1731030075424656e-02 3.7104175077192054e-02  7.6189064105093899e-04 1.5105105970962908e-02 4.4424398969085704e-02  -4.2441160898176950e-04 1.5372008053656764e-02 4.2381874434976076e-02  -2.0944848450796584e-05 1.5063529826335098e-02 4.1857019186552734e-02  1.4636611501763286e-04 1.5001230032481402e-02 4.2338619922379167e-02  1.0463845254614210e-04 1.4898022134529249e-02 4.2401519339744627e-02  1.1873912679886229e-04 1.4776080001000473e-02 4.2577210092928815e-02  1.2642118988433117e-04 1.4653607299070441e-02 4.2764094230211235e-02  1.3187271939078108e-04 1.4525791167045280e-02 4.2955718254319847e-02  1.3119881262744777e-04 1.4388144799828449e-02 4.3153880704165329e-02  1.5462015854619999e-04 1.4227033794784056e-02 4.3307132627549809e-02  1.3804874727432463e-04 1.4123576826746127e-02 4.3699406244533237e-02  -1.1359632677513260e-05 1.3960720026178689e-02 4.3521480160329605e-02  2.3570515522503279e-04 1.3743250609266140e-02 4.2978793343621272e-02  5.8065056437117527e-04 1.4231666710149998e-02 4.6066069078204527e-02  -2.3000000508332380e-04 1.5299627053317756e-02 4.9193700808239683e-02  -1.1768436760324010e-03 1.7987918790033561e-02 4.9413838985957199e-02  0.0000000000000000e+00 0.0000000000000000e+00 0.0000000000000000e+00  1.5103893801761013e-03 -3.0202605019841382e-03 1.7780976059526901e-02  1.3712328006181640e-03 -5.6285743037309413e-03 3.6686968510097388e-02  3.1848017803442222e-04 -6.5405545497033354e-03 4.3819215473341652e-02  -1.4998558323858156e-04 -6.3488548613884564e-03 4.1609708522212484e-02  -2.7632721694454796e-05 -6.2079798264852619e-03 4.1033198128344793e-02  3.9598388923717697e-05 -6.2179457871587391e-03 4.1503471524130288e-02  3.1770537023329183e-05 -6.2064623574448136e-03 4.1575560869521043e-02  3.5927706724474891e-05 -6.1784235704240983e-03 4.1759362369176871e-02  3.9589903724619678e-05 -6.1540882716416409e-03 4.1951843158631368e-02  3.9985760985733965e-05 -6.1275232321406324e-03 4.2155434833570850e-02  3.3935299380360583e-05 -6.0993685616448903e-03 4.2352866925440880e-02  5.9452139472478230e-05 -6.0871698359942815e-03 4.2540964258256091e-02  5.6153329585821860e-05 -6.0547732169960143e-03 4.2988889841264318e-02  -8.2494298511261070e-07 -5.9334798261026812e-03 4.2577593925885136e-02  1.4948438290586765e-04 -5.9816550516422129e-03 4.2321322584015449e-02  1.6786847385187858e-04 -6.4030028405152040e-03 4.6083826919646298e-02  -4.8911522060967119e-04 -6.8570111316971242e-03 4.8776069280865926e-02  -1.4001864429651785e-03 -7.8286290921786954e-03 4.8004681895334807e-02  0.0000000000000000e+00 0.0000000000000000e+00 0.0000000000000000e+00  1.6485925515874905e-03 -2.6492335623243073e-03 1.1168722275747335e-02  1.5167694404904241e-03 -4.9268736432412710e-03 2.4818590228114480e-02  4.0484587386845614e-04 -5.8171526804540116e-03 3.0176157320483930e-02  -1.6579430004169486e-04 -5.7117502100431034e-03 2.8303046484942383e-02  -4.0678490505855950e-05 -5.5912523172906119e-03 2.7867246200826673e-02  4.7300710632980274e-05 -5.5935928697785006e-03 2.8381884322450170e-02  3.4012157046803011e-05 -5.5846980337485568e-03 2.8539706945467116e-02  3.6842421957224780e-05 -5.5617849553204375e-03 2.8793838297593102e-02  4.1039406648491598e-05 -5.5418034719446063e-03 2.9069050309623534e-02  4.2103580061545929e-05 -5.5200427101779592e-03 2.9355654544750556e-02  3.8280597335151028e-05 -5.4968382290721124e-03 2.9647176133492541e-02  5.6932844171940023e-05 -5.4876128097949995e-03 2.9912251318380382e-02  5.4552406613483791e-05 -5.4617842139449233e-03 3.0426087063951918e-02  4.3722426657187188e-06 -5.3592794559155317e-03 3.0290596235147148e-02  1.4088026471981355e-04 -5.3958227008803821e-03 2.9991718648567742e-02  2.3926700246297119e-04 -5.7437614758066267e-03 3.2909388120827734e-02  -2.1027450058517131e-04 -6.1102839001710048e-03 3.5258457582942188e-02  -1.3094639173377226e-03 -7.1409051298397218e-03 3.5527038381003628e-02  0.0000000000000000e+00 0.0000000000000000e+00 0.0000000000000000e+00  1.0941391639061730e-03 -1.6127431738912693e-03 4.4551716178056139e-03  1.0331888355536506e-03 -3.0249222469881688e-03 1.1006195352047691e-02  3.1230095804269146e-04 -3.6314088043621416e-03 1.3736561375144474e-02  -9.5892546983679361e-05 -3.5984687547754783e-03 1.2754438309738486e-02  -1.8277206557051924e-05 -3.5310103730513062e-03 1.2614510637025723e-02  5.1644843286402658e-05 -3.5346693878150789e-03 1.3064598615333272e-02  4.3220723319888763e-05 -3.5347980773204860e-03 1.3313963041805902e-02  4.5358085035707942e-05 -3.5282598723409275e-03 1.3625374550700141e-02  4.9712106353057797e-05 -3.5236414856109417e-03 1.3965136208250408e-02  5.1628965081641095e-05 -3.5184471737812078e-03 1.4318188724592174e-02  5.1191353205972057e-05 -3.5124507864553668e-03 1.4685363759982025e-02  6.0685268091751346e-05 -3.5145530529290293e-03 1.5032287792868811e-02  5.8260818586444107e-05 -3.5091929108924096e-03 1.5530406421768025e-02  3.1207807374933139e-05 -3.4550771587439810e-03 1.5717040136860146e-02  1.1477547817856319e-04 -3.4783427783762113e-03 1.5667899073716827e-02  2.0494954101457136e-04 -3.7016111072315978e-03 1.7326042686763916e-02  3.1926984208061918e-05 -3.9016886693986502e-03 1.8801772272727481e-02  -1.1878130044544542e-03 -4.7917154592693667e-03 1.9591863297219254e-02  0.0000000000000000e+00 0.0000000000000000e+00 0.0000000000000000e+00  1.0559210995997263e-05 -1.7902680680389492e-06 3.2601768468073140e-05  2.0636718089300696e-05 -5.9659401664419040e-06 1.2444115885647234e-04  2.9506143002381043e-05 -1.2383161173277114e-05 2.6971521511965870e-04  3.7291137367765037e-05 -2.0808486351524366e-05 4.6206759628975908e-04  4.4068218222014486e-05 -3.1023883395479093e-05 6.9558814936906380e-04  4.9906050058492046e-05 -4.2823141085630219e-05 9.6475224592739968e-04  5.4872725633998295e-05 -5.6007052171540296e-05 1.2644119265512407e-03  5.9037359532194148e-05 -7.0384364845580826e-05 1.5898105062854709e-03  6.2469254360888812e-05 -8.5773881160890205e-05 1.9365819392310616e-03  6.5238087340616362e-05 -1.0200514657876404e-04 2.3007538910864624e-03  6.7413962126014153e-05 -1.1891964028090122e-04 2.6787509445308343e-03  6.9067426853654536e-05 -1.3637203318474033e-04 3.0673978127702534e-03  7.0269286730277448e-05 -1.5423142470711660e-04 3.4639227272201668e-03  7.1091092655360043e-05 -1.7238334965767870e-04 3.8659593599262953e-03  7.1604759928493560e-05 -1.9073054216533239e-04 4.2715572533417057e-03  7.1879938553211678e-05 -2.0919313563879017e-04 4.6791741466074991e-03  7.1988348629243708e-05 -2.2771206483674944e-04 5.0876510160553137e-03  7.2008991357980210e-05 -2.4625267611566646e-04 5.4962763425663690e-03  0.0000000000000000e+00 0.0000000000000000e+00 0.0000000000000000e+00  1.0725778440716721e-05 -2.6694858853311636e-06 3.2063326654016202e-05  2.1549779076387126e-05 -6.6787456537643037e-06 1.2384352966175901e-04  3.1018479422910463e-05 -1.3006911970954576e-05 2.6906082906669437e-04  3.9341892312263055e-05 -2.1352849271697636e-05 4.6136053328207043e-04  4.6599674627748209e-05 -3.1494748498014390e-05 6.9483470820057324e-04  5.2862856854723408e-05 -4.3225617012776050e-05 9.6395824633054451e-04  5.8201320794213459e-05 -5.6346324940122219e-05 1.2635828195151685e-03  6.2686483980785098e-05 -7.0665666853306748e-05 1.5889513491664537e-03  6.6390300198516402e-05 -8.6002471551548915e-05 1.9356973607790749e-03  6.9385343258646063e-05 -1.0218632866659341e-04 2.2998480935365745e-03  7.1744925134697957e-05 -1.1905876247404896e-04 2.6778276752811862e-03  7.3543130046975559e-05 -1.3647448773038690e-04 3.0664603555231457e-03  7.4854718683138200e-05 -1.5430264302887078e-04 3.4629738852295640e-03  7.5755462737168836e-05 -1.7242884217016750e-04 3.8650014412782482e-03  7.6321831671394611e-05 -1.9075573574808442e-04 4.2705920357040718e-03  7.6628617026809054e-05 -2.0920332265384208e-04 4.6782027947655895e-03  7.6752711138445277e-05 -2.2771294259162021e-04 5.0866741186314599e-03  7.6778982498656816e-05 -2.4624934463464480e-04 5.4952951455071921e-03  0.0000000000000000e+00 0.0000000000000000e+00 0.0000000000000000e+00  1.2248092994977173e-03 1.5491717414422054e-03 6.1599033944316093e-03  1.0064150163992512e-03 2.9419743182425889e-03 1.2475233829274453e-02  2.4133139731354416e-04 3.6322807296116869e-03 1.4186024274464092e-02  -8.5767052852509892e-05 3.6126140213657474e-03 1.2922876657489491e-02  7.4677906671690559e-06 3.5255538268931163e-03 1.2978745665155996e-02  5.8337527089940014e-05 3.5021583093690235e-03 1.3384478735398485e-02  5.2942939075260874e-05 3.4606652561591619e-03 1.3614797290541433e-02  5.6984007987824224e-05 3.4199915112662193e-03 1.3937574611602071e-02  6.1146440814218949e-05 3.3778592351033300e-03 1.4270471550164138e-02  6.3493447660445046e-05 3.3335005414221017e-03 1.4620319785144222e-02  6.2188284292541001e-05 3.2860006157205434e-03 1.4980963903383002e-02  7.3820109723541039e-05 3.2306592043463175e-03 1.5341997636656160e-02  7.1135577173821475e-05 3.1916973139723159e-03 1.5810845631131842e-02  2.5519520341894495e-05 3.1348452602234173e-03 1.5929414142428596e-02  1.0425042305725980e-04 3.0657294419398537e-03 1.5944867203029352e-02  1.8375314966975333e-04 3.1716459941566774e-03 1.7573727159892968e-02  8.6842289207235267e-06 3.4410416549079401e-03 1.8820649752877068e-02  -8.2840252525717066e-04 4.0928498048003210e-03 1.7876807679080023e-02  0.0000000000000000e+00 0.0000000000000000e+00 0.0000000000000000e+00  1.7643891481608134e-03 2.4782245666132943e-03 1.3003532874226250e-02  1.5449739105376393e-03 5.0745638081064089e-03 2.6504108418726437e-02  3.5327250032334050e-04 6.4513823659558944e-03 3.1023811396655457e-02  -1.8288374713998788e-04 6.5194579378936648e-03 2.8876089093782656e-02  -2.1488229838273737e-05 6.3785880384646092e-03 2.8580888959660135e-02  7.1665873507511710e-05 6.3414984337048941e-03 2.9073216230713583e-02  5.8285847552904787e-05 6.2785626333124291e-03 2.9211903664515263e-02  6.0151164333742537e-05 6.2134618753334333e-03 2.9469198933446992e-02  6.5230381581261147e-05 6.1469400206051600e-03 2.9736470592298080e-02  6.7936098326131140e-05 6.0772436631438527e-03 3.0015046681590916e-02  6.5663184148939463e-05 6.0026553275955019e-03 3.0301510679865640e-02  8.0642672976609015e-05 5.9129930852309491e-03 3.0562242105854454e-02  7.9197172862268791e-05 5.8537469515640150e-03 3.1028063628979193e-02  8.8901916694806406e-06 5.7725753856634598e-03 3.0946218507159506e-02  1.12