<?xml version="1.0"?>
<VTKFile type="UnstructuredGrid"  version="0.1"  >
<UnstructuredGrid>
<Piece  NumberOfPoints="760" NumberOfCells="3024">
<Points>
<DataArray  type="Float64"  NumberOfComponents="3"  format="ascii">0 0 0  0.05555555555555555 0 0  0.1111111111111111 0 0  0.1666666666666667 0 0  0.2222222222222222 0 0  0.2777777777777778 0 0  0.3333333333333333 0 0  0.3888888888888889 0 0  0.4444444444444444 0 0  0.5 0 0  0.5555555555555556 0 0  0.6111111111111112 0 0  0.6666666666666666 0 0  0.7222222222222222 0 0  0.7777777777777778 0 0  0.8333333333333334 0 0  0.8888888888888888 0 0  0.9444444444444444 0 0  1 0 0  0 0.01428571428571429 0  0.05555555555555555 0.01428571428571429 0  0.1111111111111111 0.01428571428571429 0  0.1666666666666667 0.01428571428571429 0  0.2222222222222222 0.01428571428571429 0  0.2777777777777778 0.01428571428571429 0  0.3333333333333333 0.01428571428571429 0  0.3888888888888889 0.01428571428571429 0  0.4444444444444444 0.01428571428571429 0  0.5 0.01428571428571429 0  0.5555555555555556 0.01428571428571429 0  0.6111111111111112 0.01428571428571429 0  0.6666666666666666 0.01428571428571429 0  0.7222222222222222 0.01428571428571429 0  0.7777777777777778 0.01428571428571429 0  0.8333333333333334 0.01428571428571429 0  0.8888888888888888 0.01428571428571429 0  0.9444444444444444 0.01428571428571429 0  1 0.01428571428571429 0  0 0.02857142857142857 0  0.05555555555555555 0.02857142857142857 0  0.1111111111111111 0.02857142857142857 0  0.1666666666666667 0.02857142857142857 0  0.2222222222222222 0.02857142857142857 0  0.2777777777777778 0.02857142857142857 0  0.3333333333333333 0.02857142857142857 0  0.3888888888888889 0.02857142857142857 0  0.4444444444444444 0.02857142857142857 0  0.5 0.02857142857142857 0  0.5555555555555556 0.02857142857142857 0  0.6111111111111112 0.02857142857142857 0  0.6666666666666666 0.02857142857142857 0  0.7222222222222222 0.02857142857142857 0  0.7777777777777778 0.02857142857142857 0  0.8333333333333334 0.02857142857142857 0  0.8888888888888888 0.02857142857142857 0  0.9444444444444444 0.02857142857142857 0  1 0.02857142857142857 0  0 0.04285714285714286 0  0.05555555555555555 0.04285714285714286 0  0.1111111111111111 0.04285714285714286 0  0.1666666666666667 0.04285714285714286 0  0.2222222222222222 0.04285714285714286 0  0.2777777777777778 0.04285714285714286 0  0.3333333333333333 0.04285714285714286 0  0.3888888888888889 0.04285714285714286 0  0.4444444444444444 0.04285714285714286 0  0.5 0.04285714285714286 0  0.5555555555555556 0.04285714285714286 0  0.6111111111111112 0.04285714285714286 0  0.6666666666666666 0.04285714285714286 0  0.7222222222222222 0.04285714285714286 0  0.7777777777777778 0.04285714285714286 0  0.8333333333333334 0.04285714285714286 0  0.8888888888888888 0.04285714285714286 0  0.9444444444444444 0.04285714285714286 0  1 0.04285714285714286 0  0 0.05714285714285715 0  0.05555555555555555 0.05714285714285715 0  0.1111111111111111 0.05714285714285715 0  0.1666666666666667 0.05714285714285715 0  0.2222222222222222 0.05714285714285715 0  0.2777777777777778 0.05714285714285715 0  0.3333333333333333 0.05714285714285715 0  0.3888888888888889 0.05714285714285715 0  0.4444444444444444 0.05714285714285715 0  0.5 0.05714285714285715 0  0.5555555555555556 0.05714285714285715 0  0.6111111111111112 0.05714285714285715 0  0.6666666666666666 0.05714285714285715 0  0.7222222222222222 0.05714285714285715 0  0.7777777777777778 0.05714285714285715 0  0.8333333333333334 0.05714285714285715 0  0.8888888888888888 0.05714285714285715 0  0.9444444444444444 0.05714285714285715 0  1 0.05714285714285715 0  0 0.07142857142857142 0  0.05555555555555555 0.07142857142857142 0  0.1111111111111111 0.07142857142857142 0  0.1666666666666667 0.07142857142857142 0  0.2222222222222222 0.07142857142857142 0  0.2777777777777778 0.07142857142857142 0  0.3333333333333333 0.07142857142857142 0  0.3888888888888889 0.07142857142857142 0  0.4444444444444444 0.07142857142857142 0  0.5 0.07142857142857142 0  0.5555555555555556 0.07142857142857142 0  0.6111111111111112 0.07142857142857142 0  0.6666666666666666 0.07142857142857142 0  0.7222222222222222 0.07142857142857142 0  0.7777777777777778 0.07142857142857142 0  0.8333333333333334 0.07142857142857142 0  0.8888888888888888 0.07142857142857142 0  0.9444444444444444 0.07142857142857142 0  1 0.07142857142857142 0  0 0.08571428571428573 0  0.05555555555555555 0.08571428571428573 0  0.1111111111111111 0.08571428571428573 0  0.1666666666666667 0.08571428571428573 0  0.2222222222222222 0.08571428571428573 0  0.2777777777777778 0.08571428571428573 0  0.3333333333333333 0.08571428571428573 0  0.3888888888888889 0.08571428571428573 0  0.4444444444444444 0.08571428571428573 0  0.5 0.08571428571428573 0  0.5555555555555556 0.08571428571428573 0  0.6111111111111112 0.08571428571428573 0  0.6666666666666666 0.08571428571428573 0  0.7222222222222222 0.08571428571428573 0  0.7777777777777778 0.08571428571428573 0  0.8333333333333334 0.08571428571428573 0  0.8888888888888888 0.08571428571428573 0  0.9444444444444444 0.08571428571428573 0  1 0.08571428571428573 0  0 0.1 0  0.05555555555555555 0.1 0  0.1111111111111111 0.1 0  0.1666666666666667 0.1 0  0.2222222222222222 0.1 0  0.2777777777777778 0.1 0  0.3333333333333333 0.1 0  0.3888888888888889 0.1 0  0.4444444444444444 0.1 0  0.5 0.1 0  0.5555555555555556 0.1 0  0.6111111111111112 0.1 0  0.6666666666666666 0.1 0  0.7222222222222222 0.1 0  0.7777777777777778 0.1 0  0.8333333333333334 0.1 0  0.8888888888888888 0.1 0  0.9444444444444444 0.1 0  1 0.1 0  0 0 0.01  0.05555555555555555 0 0.01  0.1111111111111111 0 0.01  0.1666666666666667 0 0.01  0.2222222222222222 0 0.01  0.2777777777777778 0 0.01  0.3333333333333333 0 0.01  0.3888888888888889 0 0.01  0.4444444444444444 0 0.01  0.5 0 0.01  0.5555555555555556 0 0.01  0.6111111111111112 0 0.01  0.6666666666666666 0 0.01  0.7222222222222222 0 0.01  0.7777777777777778 0 0.01  0.8333333333333334 0 0.01  0.8888888888888888 0 0.01  0.9444444444444444 0 0.01  1 0 0.01  0 0.01428571428571429 0.01  0.05555555555555555 0.01428571428571429 0.01  0.1111111111111111 0.01428571428571429 0.01  0.1666666666666667 0.01428571428571429 0.01  0.2222222222222222 0.01428571428571429 0.01  0.2777777777777778 0.01428571428571429 0.01  0.3333333333333333 0.01428571428571429 0.01  0.3888888888888889 0.01428571428571429 0.01  0.4444444444444444 0.01428571428571429 0.01  0.5 0.01428571428571429 0.01  0.5555555555555556 0.01428571428571429 0.01  0.6111111111111112 0.01428571428571429 0.01  0.6666666666666666 0.01428571428571429 0.01  0.7222222222222222 0.01428571428571429 0.01  0.7777777777777778 0.01428571428571429 0.01  0.8333333333333334 0.01428571428571429 0.01  0.8888888888888888 0.01428571428571429 0.01  0.9444444444444444 0.01428571428571429 0.01  1 0.01428571428571429 0.01  0 0.02857142857142857 0.01  0.05555555555555555 0.02857142857142857 0.01  0.1111111111111111 0.02857142857142857 0.01  0.1666666666666667 0.02857142857142857 0.01  0.2222222222222222 0.02857142857142857 0.01  0.2777777777777778 0.02857142857142857 0.01  0.3333333333333333 0.02857142857142857 0.01  0.3888888888888889 0.02857142857142857 0.01  0.4444444444444444 0.02857142857142857 0.01  0.5 0.02857142857142857 0.01  0.5555555555555556 0.02857142857142857 0.01  0.6111111111111112 0.02857142857142857 0.01  0.6666666666666666 0.02857142857142857 0.01  0.7222222222222222 0.02857142857142857 0.01  0.7777777777777778 0.02857142857142857 0.01  0.8333333333333334 0.02857142857142857 0.01  0.8888888888888888 0.02857142857142857 0.01  0.9444444444444444 0.02857142857142857 0.01  1 0.02857142857142857 0.01  0 0.04285714285714286 0.01  0.05555555555555555 0.04285714285714286 0.01  0.1111111111111111 0.04285714285714286 0.01  0.1666666666666667 0.04285714285714286 0.01  0.2222222222222222 0.04285714285714286 0.01  0.2777777777777778 0.04285714285714286 0.01  0.3333333333333333 0.04285714285714286 0.01  0.3888888888888889 0.04285714285714286 0.01  0.4444444444444444 0.04285714285714286 0.01  0.5 0.04285714285714286 0.01  0.5555555555555556 0.04285714285714286 0.01  0.6111111111111112 0.04285714285714286 0.01  0.6666666666666666 0.04285714285714286 0.01  0.7222222222222222 0.04285714285714286 0.01  0.7777777777777778 0.04285714285714286 0.01  0.8333333333333334 0.04285714285714286 0.01  0.8888888888888888 0.04285714285714286 0.01  0.9444444444444444 0.04285714285714286 0.01  1 0.04285714285714286 0.01  0 0.05714285714285715 0.01  0.05555555555555555 0.05714285714285715 0.01  0.1111111111111111 0.05714285714285715 0.01  0.1666666666666667 0.05714285714285715 0.01  0.2222222222222222 0.05714285714285715 0.01  0.2777777777777778 0.05714285714285715 0.01  0.3333333333333333 0.05714285714285715 0.01  0.3888888888888889 0.05714285714285715 0.01  0.4444444444444444 0.05714285714285715 0.01  0.5 0.05714285714285715 0.01  0.5555555555555556 0.05714285714285715 0.01  0.6111111111111112 0.05714285714285715 0.01  0.6666666666666666 0.05714285714285715 0.01  0.7222222222222222 0.05714285714285715 0.01  0.7777777777777778 0.05714285714285715 0.01  0.8333333333333334 0.05714285714285715 0.01  0.8888888888888888 0.05714285714285715 0.01  0.9444444444444444 0.05714285714285715 0.01  1 0.05714285714285715 0.01  0 0.07142857142857142 0.01  0.05555555555555555 0.07142857142857142 0.01  0.1111111111111111 0.07142857142857142 0.01  0.1666666666666667 0.07142857142857142 0.01  0.2222222222222222 0.07142857142857142 0.01  0.2777777777777778 0.07142857142857142 0.01  0.3333333333333333 0.07142857142857142 0.01  0.3888888888888889 0.07142857142857142 0.01  0.4444444444444444 0.07142857142857142 0.01  0.5 0.07142857142857142 0.01  0.5555555555555556 0.07142857142857142 0.01  0.6111111111111112 0.07142857142857142 0.01  0.6666666666666666 0.07142857142857142 0.01  0.7222222222222222 0.07142857142857142 0.01  0.7777777777777778 0.07142857142857142 0.01  0.8333333333333334 0.07142857142857142 0.01  0.8888888888888888 0.07142857142857142 0.01  
[...]
<PointData  Vectors="f_36"> 
<DataArray  type="Float64"  Name="f_36"  NumberOfComponents="3" format="ascii">0.0000000000000000e+00 0.0000000000000000e+00 0.0000000000000000e+00  -2.9253487845840964e-04 7.0921874638169425e-04 -2.0209151525905390e-03  5.3790148659153419e-05 8.5047622972034536e-04 -3.0456625617066432e-03  7.7971647078772842e-04 -6.0711186716160461e-06 -1.3906833531409318e-03  1.5476940543228126e-03 -1.9976964633536846e-03 4.0003875371023038e-03  1.8434042453531108e-03 -4.6052102016642289e-03 1.2101683548476553e-02  1.4359984686470716e-03 -6.8246080278055550e-03 1.9657528599300270e-02  5.7170406018797442e-04 -7.8800050051094465e-03 2.3788255264987321e-02  -1.4076615649248327e-04 -7.7794904960570149e-03 2.3670960219239784e-02  -5.3959756977057130e-06 -7.4934476761683074e-03 2.1920541191317099e-02  6.1370400091611003e-04 -8.0459523838346762e-03 2.3336959719773783e-02  7.8158832299452354e-04 -9.1439415910829231e-03 2.7288789338542611e-02  6.3038365620431624e-04 -1.0074373915982166e-02 3.0320540955354126e-02  5.6860799062405701e-04 -1.0839243406737876e-02 3.2771820006598507e-02  4.9495102913528737e-04 -1.1500857661813866e-02 3.5111756845312807e-02  3.6782054172515658e-04 -1.1992854197166789e-02 3.6867051117908119e-02  1.9506746620923934e-04 -1.2352902880654170e-02 3.8315583495844650e-02  -3.2477386817103272e-04 -1.2641104500894016e-02 3.9586394406150249e-02  -1.0748213964934671e-03 -1.3396942565498967e-02 3.9478711640201461e-02  0.0000000000000000e+00 0.0000000000000000e+00 0.0000000000000000e+00  -3.0205609404596474e-04 6.3044727975004357e-04 -1.3755955810832684e-03  8.3179697344526556e-06 8.2241738896702361e-04 -2.2498596757769664e-03  6.8525398387144496e-04 1.3135132202158722e-04 -1.3319792714239136e-03  1.4336102272503575e-03 -1.6240167480820321e-03 2.2700584239400213e-03  1.7726621857108204e-03 -4.0224788697519592e-03 7.9878643632312930e-03  1.4342217715848763e-03 -6.1484593727983853e-03 1.3498714498014769e-02  6.2704168570593100e-04 -7.2350199130372253e-03 1.6642556092771967e-02  -9.3436375786492748e-05 -7.2076043194786495e-03 1.6641578671003354e-02  -5.7764929914794573e-05 -6.9103013977309504e-03 1.5213734840820911e-02  5.4395616801078937e-04 -7.3523688298541903e-03 1.6122036351992528e-02  7.8015264491273139e-04 -8.3549000201569197e-03 1.9068326524920201e-02  6.2854692789241439e-04 -9.2363828417848272e-03 2.1289407272281180e-02  5.5402632501387660e-04 -9.9569157216962099e-03 2.3052636886270982e-02  4.9297787722012143e-04 -1.0583117969430391e-02 2.4796179609733418e-02  3.7115314061614930e-04 -1.1054759960254016e-02 2.6121162595575842e-02  2.4234312236451658e-04 -1.1404954807882626e-02 2.7250751939499759e-02  -8.5924181870077266e-05 -1.1716654480073543e-02 2.8400137588929290e-02  -1.1198492678708798e-03 -1.2792234771674888e-02 2.8990574958393463e-02  0.0000000000000000e+00 0.0000000000000000e+00 0.0000000000000000e+00  -1.8495456451375188e-04 4.1777660407336784e-04 -6.2207684812782670e-04  5.7855770939623541e-07 6.0171291872345573e-04 -1.0817522423660524e-03  4.1786736503788961e-04 2.2253939736623191e-04 -7.0959440820010677e-04  8.8996123156853517e-04 -8.9726419755810816e-04 9.8666921458423159e-04  1.1238620149387974e-03 -2.5218574553555442e-03 3.8094705903973358e-03  9.3641048505481634e-04 -4.0296755400485162e-03 6.6308881887080810e-03  4.4654901187299523e-04 -4.8513334181168070e-03 8.3506752477176590e-03  -8.7742519996963204e-06 -4.8634857937328328e-03 8.5018510180516725e-03  -1.8164989776098945e-05 -4.6075712403093510e-03 7.8297719942267523e-03  3.5602928308906765e-04 -4.8540698047509741e-03 8.3219164169208801e-03  5.3225107146127166e-04 -5.5424753821687253e-03 9.9311004233280428e-03  4.3891505306558487e-04 -6.1589311449646257e-03 1.1164192230143297e-02  3.8629314173158514e-04 -6.6548226277775950e-03 1.2149655000361271e-02  3.5250501703174621e-04 -7.0923475599836069e-03 1.3155969740671934e-02  2.7917162528840855e-04 -7.4273627637471721e-03 1.3957845444875938e-02  2.1296988237044770e-04 -7.6896639534594254e-03 1.4669642976259728e-02  1.2761659135216300e-04 -7.9089742691476495e-03 1.5451659345348529e-02  -1.2986505250616514e-03 -9.3386592351483774e-03 1.6336312535024666e-02  0.0000000000000000e+00 0.0000000000000000e+00 0.0000000000000000e+00  1.5201985801448455e-05 -1.2781028149764112e-06 2.2293145369408214e-05  2.9192026856660682e-05 -4.0829396491178033e-06 8.4619826151677150e-05  4.1948796932393265e-05 -8.4163034544442394e-06 1.8471191597795147e-04  5.3408395416262356e-05 -1.4112569061615341e-05 3.1894310094525587e-04  6.3565862547148308e-05 -2.1034826540489303e-05 4.8363105295956901e-04  7.2445500304805141e-05 -2.9044331616403278e-05 6.7510983943428859e-04  8.0103197446766282e-05 -3.8004078798045750e-05 8.8982768008215578e-04  8.6617516182318732e-05 -4.7782076986234036e-05 1.1244369054900308e-03  9.2072180666678783e-05 -5.8254333906793791e-05 1.3758375389039995e-03  9.6541863681315197e-05 -6.9305578511169119e-05 1.6411612057910222e-03  1.0009702477632220e-04 -8.0827812868340730e-05 1.9177263912629463e-03  1.0281946265398849e-04 -9.2719865125888941e-05 2.2030520000730445e-03  1.0480482122888193e-04 -1.0488982750555500e-04 2.4949137360278516e-03  1.0615769624593990e-04 -1.1725758036476375e-04 2.7913722043498984e-03  1.0699111417047991e-04 -1.2975589036938831e-04 3.0907938458212955e-03  1.0742614779630941e-04 -1.4233159447759656e-04 3.3918772412131087e-03  1.0759076594802707e-04 -1.5494655441251814e-04 3.6936724990993845e-03  1.0762087779968333e-04 -1.6757949407276144e-04 3.9956036781171930e-03  0.0000000000000000e+00 0.0000000000000000e+00 0.0000000000000000e+00  1.4330538953120058e-05 -2.1106109685477501e-06 2.2058960946229268e-05  2.8839631977991806e-05 -4.8509686424981733e-06 8.4283256623042104e-05  4.2091815038567718e-05 -9.1125884005277202e-06 1.8433583833470611e-04  5.4009840722517209e-05 -1.4731842509906592e-05 3.1853250163405456e-04  6.4589038073683367e-05 -2.1577167928888494e-05 4.8318915084690894e-04  7.3850747710523548e-05 -2.9512460231397326e-05 6.7463901547353705e-04  8.1848817860975958e-05 -3.8402839887335714e-05 8.8933069933483139e-04  8.8662164088834967e-05 -4.8117091702545860e-05 1.1239173942650365e-03  9.4377286899136184e-05 -5.8530474616757852e-05 1.3752996155290062e-03  9.9072318483507703e-05 -6.9526597854869301e-05 1.6406085717302187e-03  1.0281898510364464e-04 -8.0997844859173273e-05 1.9171618525722553e-03  1.0569931891879859e-04 -9.2844335149981018e-05 2.2024780153047244e-03  1.0781071197927332e-04 -1.0497481858263614e-04 2.4943327579273491e-03  1.0926017336539147e-04 -1.1730958818521994e-04 2.7907862625483619e-03  1.1016328815267613e-04 -1.2978191365441559e-04 3.0902042798742566e-03  1.1064416079745602e-04 -1.4233902528612146e-04 3.3912844515489879e-03  1.1083401853338891e-04 -1.5494311446094869e-04 3.6930755875185669e-03  1.1087195138745194e-04 -1.6757214856238771e-04 3.9950002819071186e-03  0.0000000000000000e+00 0.0000000000000000e+00 0.0000000000000000e+00  -1.8221102813494576e-04 -4.3644314054777910e-04 -7.9292020666529048e-04  5.3422012591854599e-05 -6.3023061420404262e-04 -1.1396381747615287e-03  4.9379503405604216e-04 -2.5070312290857862e-04 -4.3738866976173504e-04  9.4227072508064000e-04 8.9689649059058140e-04 1.6722175068569236e-03  1.1027344835560684e-03 2.5998461097348244e-03 4.7752787936891335e-03  8.4406843060824525e-04 4.2166265412405318e-03 7.5770055955654792e-03  3.4680380860342539e-04 5.1375944647545791e-03 9.0226495106546407e-03  -3.0617781375314415e-05 5.2281391215929411e-03 8.9706066551038261e-03  5.7862249662824671e-05 4.9698506018740745e-03 8.4348623037136753e-03  3.9919371200709889e-04 5.1343065824720948e-03 9.1812373649579806e-03  4.9707166914570073e-04 5.7693031355343857e-03 1.0795181736376403e-02  4.3640302541289209e-04 6.3910007466343793e-03 1.1962039078468460e-02  4.2831862893086942e-04 6.9363139677635598e-03 1.3050540629639921e-02  4.1474924895176172e-04 7.4775670721646727e-03 1.4205681226380412e-02  3.8066576683111166e-04 7.9789583848028731e-03 1.5244011679903430e-02  3.0791786203134360e-04 8.4555014424189997e-03 1.6280401697739841e-02  6.4840202349206505e-05 9.0227785715876630e-03 1.7203283520410638e-02  -8.7540192613217230e-04 1.0414715908960320e-02 1.7257149652207631e-02  0.0000000000000000e+00 0.0000000000000000e+00 0.0000000000000000e+00  -3.0750663354185291e-04 -5.5948860155549110e-04 -1.5207391358361803e-03  4.2255786907154381e-05 -8.5787216478173131e-04 -2.2416551419398418e-03  7.3492905685392093e-04 -3.9396370143729296e-04 -9.8347290871618996e-04  1.4593727110317662e-03 1.1228207424858374e-03 2.9535487515315742e-03  1.7418698246744956e-03 3.4500402507404329e-03 8.8235949823575067e-03  1.3429673368841510e-03 5.7411727675485960e-03 1.4189371548907649e-02  5.3939301806284797e-04 7.1339017709776400e-03 1.6979622844642016e-02  -9.7008447486302506e-05 7.3770834050041886e-03 1.6865846153839924e-02  1.8777887142606479e-06 7.0575621258428377e-03 1.5682322448396045e-02  5.6452090491005606e-04 7.2299052470018487e-03 1.6759730827321320e-02  7.5043057371503941e-04 8.0651586557025715e-03 1.9566071545807841e-02  6.3528575977700691e-04 8.9404136429597405e-03 2.1641514223250429e-02  6.1629369690730852e-04 9.7157480714312339e-03 2.3520828198880902e-02  5.9865638952478681e-04 1.0481844136945464e-02 2.5518042391178934e-02  5.3882718588619497e-04 1.1199960871868621e-02 2.7301883532004450e-02  4.0437157535960062e-04 1.1892063511879113e-02 2.9065215752654902e-02  1.4960406060788954e-05 1.2761339284506698e-02 3.0623750402959338e-02  -6.6859236823705562e-04 1.4912281262277935e-02 3.0754867820146244e-02  0.0000000000000000e+00 0.0000000000000000e+00 0.0000000000000000e+00  -3.4490151875928601e-04 -5.5292221068281599e-04 -2.0160062458620511e-03  -2.5136800978141839e-05 -9.0838843810707134e-04 -2.9979237485833867e-03  6.7163309044063213e-04 -4.8318843857222645e-04 -1.3263604779256396e-03  1.4463676729501043e-03 1.0534014287976545e-03 3.9537182703203730e-03  1.8125421830693653e-03 3.4901312054724438e-03 1.1894126506904655e-02  1.4576896226098784e-03 5.9589619813204559e-03 1.9296267399660658e-02  6.2944814988542201e-04 7.5267727574082630e-03 2.3315655977799599e-02  -8.7651817820199397e-05 7.8709433217994378e-03 2.3419754439633664e-02  -7.4833138683791481e-05 7.5535236329464578e-03 2.1926817209925859e-02  5.3770315475562384e-04 7.6967129996717261e-03 2.3162233106862794e-02  8.0008153666040970e-04 8.5495577488935229e-03 2.6768998261862124e-02  6.5355351555212386e-04 9.4780806363505624e-03 2.9625656615521904e-02  6.2216896592836343e-04 1.0310165817604496e-02 3.2181257829709306e-02  6.1395709292420299e-04 1.1132380583134798e-02 3.4869172288320746e-02  5.4127436495673281e-04 1.1909679132354261e-02 3.7293746659611687e-02  3.7874536348710423e-04 1.2674654303993073e-02 3.9676391840729457e-02  -1.5923209699658918e-04 1.3604579826441116e-02 4.1869697664415152e-02  -7.3329790429872254e-04 1.6037029342464478e-02 4.2910826279224414e-02  0.0000000000000000e+00 0.0000000000000000e+00 0.0000000000000000e+00  -1.1730558733818957e-04 2.9596160642810404e-04 -1.9736051150489866e-03  -1.6838882182519317e-06 4.0389283066672815e-04 -3.0474504666738135e-03  2.9482091341012466e-04 7.9699426346936688e-05 -1.4743756401360362e-03  6.3668831780187309e-04 -7.5684163943244391e-04 3.8216463349877699e-03  8.0443238503979649e-04 -1.9028684371056694e-03 1.1861314788274235e-02  6.7351274525864161e-04 -2.9162534241060321e-03 1.9412356911201641e-02  3.2380862627399905e-04 -3.4276693630638849e-03 2.3578602436952249e-02  -1.2433318617942484e-05 -3.4026947679533593e-03 2.3487279747005249e-02  -1.9312244741405294e-05 -3.2485766148895008e-03 2.1697800275660199e-02  2.2678393249731918e-04 -3.4616896145267658e-03 2.3049337423441792e-02  3.2048748242207597e-04 -3.9535570329515953e-03 2.6981200543547745e-02  2.6074389160867613e-04 -4.3769637889221526e-03 3.0005792502901692e-02  2.3674749985187955e-04 -4.7174030202416723e-03 3.2435445360185826e-02  2.1373043859938194e-04 -5.0182559383711179e-03 3.4763586658832946e-02  1.4142274873647328e-04 -5.2458549080163994e-03 3.6514284218043577e-02  -2.0513722963251156e-06 -5.4190859818183910e-03 3.7957994067085200e-02  -4.0818520537688513e-04 -5.6725221855959953e-03 3.9225015351254770e-02  -1.0214688172418217e-03 -6.4658783588215224e-03 3.9118288396473223e-02  0.0000000000000000e+00 0.0000000000000000e+00 0.0000000000000000e+00  -1.3472170278380600e-04 2.5881978552424480e-04 -1.3407783024166015e-03  -1.2407382946216824e-05 3.5353753732607362e-04 -2.2487238168623245e-03  2.9601317213242206e-04 7.9181174946525731e-05 -1.3897268576086078e-03  6.5418785180001418e-04 -6.4758160342446745e-04 2.1390902936601879e-03  8.4053103219588630e-04 -1.6585751155086543e-03 7.8042376808860397e-03  7.1327019836570126e-04 -2.5710171285024301e-03 1.3300838092047303e-02  3.5167240096614985e-04 -3.0526617564012749e-03 1.6458345851696966e-02  -3.8737917322088548e-06 -3.0586591503666580e-03 1.6467055718159058e-02  -3.4674217983879164e-05 -2.9326140854686825e-03 1.5001665023897305e-02  2.2495514284422973e-04 -3.1096882702070106e-03 1.5856044142281304e-02  3.5055068617604923e-04 -3.5374408160950290e-03 1.8790764933169658e-02  2.8697790609683510e-04 -3.9212727368586608e-03 2.1006773362373384e-02  2.5224391841060790e-04 -4.2325472798579126e-03 2.2746069831286287e-02  2.2959537582156308e-04 -4.5049888571383487e-03 2.4475160095381150e-02  1.6016136395162781e-04 -4.7117235379262280e-03 2.5793841840410083e-02  5.3952350791841939e-05 -4.8621224088862113e-03 2.6916327429157401e-02  -2.0076207978379581e-04 -5.0589616914808247e-03 2.8070692600235737e-02  -9.5907472361281732e-04 -5.8993960442031632e-03 2.8749707283821351e-02  0.0000000000000000e+00 0.0000000000000000e+00 0.0000000000000000e+00  -8.9085022021033155e-05 1.6042383522200536e-04 -5.8049998478698606e-04  -7.7153996261850826e-06 2.2260942187207259e-04 -1.0541195836035989e-03  1.9601380775265131e-04 6.3123358609164457e-05 -7.4670855464794661e-04  4.3361064645213050e-04 -3.8102398727382164e-04 8.3256383556889666e-04  5.6283830955610435e-04 -1.0138675231281021e-03 3.5227404182560863e-03  4.8569337264380789e-04 -1.5990577477999833e-03 6.2404665423138987e-03  2.5146661127171380e-04 -1.9223892856926610e-03 7.9089614770904496e-03  1.8024724436531236e-05 -1.9429931985852030e-03 8.0483429957775923e-03  -1.1314117829109620e-05 -1.8665639519412393e-03 7.3522589942743724e-03  1.5886091993670167e-04 -1.9722909167699219e-03 7.7931807411875768e-03  2.5409664811061020e-04 -2.2410456968961802e-03 9.3595097984168450e-03  2.1388596042279571e-04 -2.4892314380553070e-03 1.0551403491849491e-02  1.8662992977153906e-04 -2.6926402861584802e-03 1.1485630851482274e-02  1.7252016683536809e-04 -2.8708601883036325e-03 1.2452091460442570e-02  1.3046694465213314e-04 -3.0081428138700531e-03 1.3227006174970900e-02  7.7093275225746926e-05 -3.1116216071912918e-03 1.3918826522043671e-02  -1.3886920622295874e-06 -3.2095022498625637e-03 1.4690819037818301e-02  -9.0944737590798353e-04 -3.9362145016681761e-03 1.5595867102741280e-02  0.0000000000000000e+00 0.0000000000000000e+00 0.0000000000000000e+00  7.1580840812389474e-06 -1.1926206755012556e-06 2.1659402345664893e-05  1.4160182784292303e-05 -3.9730190208295755e-06 8.4030077573221576e-05  2.0493909840872597e-05 -8.2644046990782237e-06 1.8417447199796296e-04  2.6186154675444487e-05 -1.3923797042992760e-05 3.1846115726433038e-04  3.1236278948508725e-05 -2.0811131808407170e-05 4.8320452787914116e-04  3.5655342268301412e-05 -2.8787922901128763e-05 6.7473744966737290e-04  3.9469704694577103e-05 -3.7717902484256683e-05 8.8950695846890318e-04  4.2717433222058261e-05 -4.7469820844097604e-05 1.1241645875811619e-03  4.5440000740902753e-05 -5.7919766686336419e-05 1.3756101754508431e-03  4.7674928062526261e-05 -6.8951777902016454e-05 1.6409755872988114e-03  4.9457056753329017e-05 -8.0457329118831708e-05 1.9175793289834249e-03  5.0826129169868585e-05 -9.2335373181087109e-05 2.2029398410208013e-03  5.1828850905435480e-05 -1.0449409806888524e-04 2.4948323099427852e-03  5.2516466652061336e-05 -1.1685313844624689e-04 2.7913169573415327e-03  5.2944315099583463e-05 -1.2934487023834001e-04 3.0907598497910836e-03  5.3171766314516451e-05 -1.4191552624625092e-04 3.3918592128458123e-03  5.3261469355855529e-05 -1.5452625303627622e-04 3.6936647839657579e-03  5.3278813342212957e-05 -1.6715435802055429e-04 3.9955979478481082e-03  0.0000000000000000e+00 0.0000000000000000e+00 0.0000000000000000e+00  7.2567949587955446e-06 -1.7954450180042024e-06 2.1303893757763842e-05  1.4750469401427771e-05 -4.4772125302695382e-06 8.3638267607984561e-05  2.1484559146070024e-05 -8.7174309896463643e-06 1.8374948428334726e-04  2.7542026335854814e-05 -1.4327396334148496e-05 3.1800544072414246e-04  3.2921513262117221e-05 -2.1165834926635182e-05 4.8272097587081928e-04  3.7633587496453569e-05 -2.9095272236779748e-05 6.7422869765037348e-04  4.1704752929632967e-05 -3.7980624704333800e-05 8.8897597084632680e-04  4.5174300612187295e-05 -4.7691235807973050e-05 1.1236149560576098e-03  4.8085828802953511e-05 -5.8102999402048295e-05 1.3750457545357660e-03  5.0479240466283423e-05 -6.9099443441541947e-05 1.6403997769778792e-03  5.2391200226666133e-05 -8.0572130892716615e-05 1.9169948312973415e-03  5.3863110116847690e-05 -9.2420654378660186e-05 2.2023490888466286e-03  5.4944058886490351e-05 -1.0455367188521355e-04 2.4942376269635404e-03  5.5688216688547300e-05 -1.1689112119932230e-04 2.7907202129223312e-03  5.6154115106378284e-05 -1.2936569822782887e-04 3.0901622217576617e-03  5.6404628426738887e-05 -1.4192390131875584e-04 3.3912609254212927e-03  5.6506186661455929e-05 -1.5452697724350231e-04 3.6930648636507479e-03  5.6528034473353986e-05 -1.6715160391200416e-04 3.9949954682062241e-03  0.0000000000000000e+00 0.0000000000000000e+00 0.0000000000000000e+00  -9.7767587783815816e-05 -1.5636590928204123e-04 -7.2414379887284093e-04  3.3718330316776129e-06 -2.2347611124431399e-04 -1.0409567392725776e-03  2.1914686574800739e-04 -9.6153705158541231e-05 -3.9888427321123734e-04  4.5698701954519013e-04 2.9899480939244333e-04 1.5190718464009689e-03  5.6787822771624610e-04 8.9178677037911823e-04 4.3269574701531241e-03  4.6397242252241728e-04 1.4596177783787049e-03 6.8250058677320055e-03  2.1902981766421409e-04 1.7872319879346573e-03 8.0634214302808694e-03  7.2865582636747275e-06 1.8229092365881919e-03 7.9417348118072384e-03  1.4778937577931032e-05 1.7271918897586280e-03 7.4109006270722264e-03  1.8255478773886749e-04 1.7693395637066718e-03 8.1320492906306070e-03  2.5322072565372745e-04 1.9769758453181412e-03 9.6563831874418339e-03  2.2466861333812098e-04 2.1867494306613681e-03 1.0703618745844731e-02  2.1726069204612976e-04 2.3722340105694051e-03 1.1674272213667604e-02  2.1149024339571658e-04 2.5554846819623926e-03 1.2720274324407106e-02  1.8696407963419466e-04 2.7239124805912077e-03 1.3655989450172433e-02  1.3330898371470838e-04 2.8815348268002548e-03 1.4593008495117235e-02  1.2588487568563177e-05 3.1131990403259709e-03 1.5390816082989730e-02  -6.8154430540929114e-04 3.7017601400487709e-03 1.4951852851945816e-02  0.0000000000000000e+00 0.0000000000000000e+00 0.0000000000000000e+00  -1.4969644094912758e-04 -2.4849553190045537e-04 -1.4827405758780351e-03  -1.7413227797940041e-05 -3.8989904303313871e-04 -2.2154410343970974e-03  3.0021204533380220e-04 -1.9760142264815518e-04 -9.9432308067282527e-04  6.5885849178025943e-04 4.6692776226384358e-04 2.8611890728721711e-03  8.3513442940063751e-04 1.5054388107188430e-03 8.6214752602959029e-03  6.8574940693384462e-04 2.5420944336589711e-03 1.3876950163485412e-02  3.1573632902668925e-04 3.1843411247188184e-03 1.6581169966351811e-02  -1.2911905505202940e-05 3.3070722907841171e-03 1.6417268198800065e-02  -1.4149504228027487e-05 3.1595256038132275e-03 1.5198424304840256e-02  2.4379465943877239e-04 3.2166564086505908e-03 1.6247987229804473e-02  3.5715121323530289e-04 3.5721986052950345e-03 1.9036046731856503e-02  3.0536760556648483e-04 3.9562423257701118e-03 2.1071081273820621e-02  2.9116452578873591e-04 4.3011320796133082e-03 2.2891918817945910e-02  2.8378215370172659e-04 4.641375