<?xml version="1.0"?>
<VTKFile type="UnstructuredGrid"  version="0.1"  >
<UnstructuredGrid>
<Piece  NumberOfPoints="760" NumberOfCells="3024">
<Points>
<DataArray  type="Float64"  NumberOfComponents="3"  format="ascii">0 0 0  0.05555555555555555 0 0  0.1111111111111111 0 0  0.1666666666666667 0 0  0.2222222222222222 0 0  0.2777777777777778 0 0  0.3333333333333333 0 0  0.3888888888888889 0 0  0.4444444444444444 0 0  0.5 0 0  0.5555555555555556 0 0  0.6111111111111112 0 0  0.6666666666666666 0 0  0.7222222222222222 0 0  0.7777777777777778 0 0  0.8333333333333334 0 0  0.8888888888888888 0 0  0.9444444444444444 0 0  1 0 0  0 0.01428571428571429 0  0.05555555555555555 0.01428571428571429 0  0.1111111111111111 0.01428571428571429 0  0.1666666666666667 0.01428571428571429 0  0.2222222222222222 0.01428571428571429 0  0.2777777777777778 0.01428571428571429 0  0.3333333333333333 0.01428571428571429 0  0.3888888888888889 0.01428571428571429 0  0.4444444444444444 0.01428571428571429 0  0.5 0.01428571428571429 0  0.5555555555555556 0.01428571428571429 0  0.6111111111111112 0.01428571428571429 0  0.6666666666666666 0.01428571428571429 0  0.7222222222222222 0.01428571428571429 0  0.7777777777777778 0.01428571428571429 0  0.8333333333333334 0.01428571428571429 0  0.8888888888888888 0.01428571428571429 0  0.9444444444444444 0.01428571428571429 0  1 0.01428571428571429 0  0 0.02857142857142857 0  0.05555555555555555 0.02857142857142857 0  0.1111111111111111 0.02857142857142857 0  0.1666666666666667 0.02857142857142857 0  0.2222222222222222 0.02857142857142857 0  0.2777777777777778 0.02857142857142857 0  0.3333333333333333 0.02857142857142857 0  0.3888888888888889 0.02857142857142857 0  0.4444444444444444 0.02857142857142857 0  0.5 0.02857142857142857 0  0.5555555555555556 0.02857142857142857 0  0.6111111111111112 0.02857142857142857 0  0.6666666666666666 0.02857142857142857 0  0.7222222222222222 0.02857142857142857 0  0.7777777777777778 0.02857142857142857 0  0.8333333333333334 0.02857142857142857 0  0.8888888888888888 0.02857142857142857 0  0.9444444444444444 0.02857142857142857 0  1 0.02857142857142857 0  0 0.04285714285714286 0  0.05555555555555555 0.04285714285714286 0  0.1111111111111111 0.04285714285714286 0  0.1666666666666667 0.04285714285714286 0  0.2222222222222222 0.04285714285714286 0  0.2777777777777778 0.04285714285714286 0  0.3333333333333333 0.04285714285714286 0  0.3888888888888889 0.04285714285714286 0  0.4444444444444444 0.04285714285714286 0  0.5 0.04285714285714286 0  0.5555555555555556 0.04285714285714286 0  0.6111111111111112 0.04285714285714286 0  0.6666666666666666 0.04285714285714286 0  0.7222222222222222 0.04285714285714286 0  0.7777777777777778 0.04285714285714286 0  0.8333333333333334 0.04285714285714286 0  0.8888888888888888 0.04285714285714286 0  0.9444444444444444 0.04285714285714286 0  1 0.04285714285714286 0  0 0.05714285714285715 0  0.05555555555555555 0.05714285714285715 0  0.1111111111111111 0.05714285714285715 0  0.1666666666666667 0.05714285714285715 0  0.2222222222222222 0.05714285714285715 0  0.2777777777777778 0.05714285714285715 0  0.3333333333333333 0.05714285714285715 0  0.3888888888888889 0.05714285714285715 0  0.4444444444444444 0.05714285714285715 0  0.5 0.05714285714285715 0  0.5555555555555556 0.05714285714285715 0  0.6111111111111112 0.05714285714285715 0  0.6666666666666666 0.05714285714285715 0  0.7222222222222222 0.05714285714285715 0  0.7777777777777778 0.05714285714285715 0  0.8333333333333334 0.05714285714285715 0  0.8888888888888888 0.05714285714285715 0  0.9444444444444444 0.05714285714285715 0  1 0.05714285714285715 0  0 0.07142857142857142 0  0.05555555555555555 0.07142857142857142 0  0.1111111111111111 0.07142857142857142 0  0.1666666666666667 0.07142857142857142 0  0.2222222222222222 0.07142857142857142 0  0.2777777777777778 0.07142857142857142 0  0.3333333333333333 0.07142857142857142 0  0.3888888888888889 0.07142857142857142 0  0.4444444444444444 0.07142857142857142 0  0.5 0.07142857142857142 0  0.5555555555555556 0.07142857142857142 0  0.6111111111111112 0.07142857142857142 0  0.6666666666666666 0.07142857142857142 0  0.7222222222222222 0.07142857142857142 0  0.7777777777777778 0.07142857142857142 0  0.8333333333333334 0.07142857142857142 0  0.8888888888888888 0.07142857142857142 0  0.9444444444444444 0.07142857142857142 0  1 0.07142857142857142 0  0 0.08571428571428573 0  0.05555555555555555 0.08571428571428573 0  0.1111111111111111 0.08571428571428573 0  0.1666666666666667 0.08571428571428573 0  0.2222222222222222 0.08571428571428573 0  0.2777777777777778 0.08571428571428573 0  0.3333333333333333 0.08571428571428573 0  0.3888888888888889 0.08571428571428573 0  0.4444444444444444 0.08571428571428573 0  0.5 0.08571428571428573 0  0.5555555555555556 0.08571428571428573 0  0.6111111111111112 0.08571428571428573 0  0.6666666666666666 0.08571428571428573 0  0.7222222222222222 0.08571428571428573 0  0.7777777777777778 0.08571428571428573 0  0.8333333333333334 0.08571428571428573 0  0.8888888888888888 0.08571428571428573 0  0.9444444444444444 0.08571428571428573 0  1 0.08571428571428573 0  0 0.1 0  0.05555555555555555 0.1 0  0.1111111111111111 0.1 0  0.1666666666666667 0.1 0  0.2222222222222222 0.1 0  0.2777777777777778 0.1 0  0.3333333333333333 0.1 0  0.3888888888888889 0.1 0  0.4444444444444444 0.1 0  0.5 0.1 0  0.5555555555555556 0.1 0  0.6111111111111112 0.1 0  0.6666666666666666 0.1 0  0.7222222222222222 0.1 0  0.7777777777777778 0.1 0  0.8333333333333334 0.1 0  0.8888888888888888 0.1 0  0.9444444444444444 0.1 0  1 0.1 0  0 0 0.01  0.05555555555555555 0 0.01  0.1111111111111111 0 0.01  0.1666666666666667 0 0.01  0.2222222222222222 0 0.01  0.2777777777777778 0 0.01  0.3333333333333333 0 0.01  0.3888888888888889 0 0.01  0.4444444444444444 0 0.01  0.5 0 0.01  0.5555555555555556 0 0.01  0.6111111111111112 0 0.01  0.6666666666666666 0 0.01  0.7222222222222222 0 0.01  0.7777777777777778 0 0.01  0.8333333333333334 0 0.01  0.8888888888888888 0 0.01  0.9444444444444444 0 0.01  1 0 0.01  0 0.01428571428571429 0.01  0.05555555555555555 0.01428571428571429 0.01  0.1111111111111111 0.01428571428571429 0.01  0.1666666666666667 0.01428571428571429 0.01  0.2222222222222222 0.01428571428571429 0.01  0.2777777777777778 0.01428571428571429 0.01  0.3333333333333333 0.01428571428571429 0.01  0.3888888888888889 0.01428571428571429 0.01  0.4444444444444444 0.01428571428571429 0.01  0.5 0.01428571428571429 0.01  0.5555555555555556 0.01428571428571429 0.01  0.6111111111111112 0.01428571428571429 0.01  0.6666666666666666 0.01428571428571429 0.01  0.7222222222222222 0.01428571428571429 0.01  0.7777777777777778 0.01428571428571429 0.01  0.8333333333333334 0.01428571428571429 0.01  0.8888888888888888 0.01428571428571429 0.01  0.9444444444444444 0.01428571428571429 0.01  1 0.01428571428571429 0.01  0 0.02857142857142857 0.01  0.05555555555555555 0.02857142857142857 0.01  0.1111111111111111 0.02857142857142857 0.01  0.1666666666666667 0.02857142857142857 0.01  0.2222222222222222 0.02857142857142857 0.01  0.2777777777777778 0.02857142857142857 0.01  0.3333333333333333 0.02857142857142857 0.01  0.3888888888888889 0.02857142857142857 0.01  0.4444444444444444 0.02857142857142857 0.01  0.5 0.02857142857142857 0.01  0.5555555555555556 0.02857142857142857 0.01  0.6111111111111112 0.02857142857142857 0.01  0.6666666666666666 0.02857142857142857 0.01  0.7222222222222222 0.02857142857142857 0.01  0.7777777777777778 0.02857142857142857 0.01  0.8333333333333334 0.02857142857142857 0.01  0.8888888888888888 0.02857142857142857 0.01  0.9444444444444444 0.02857142857142857 0.01  1 0.02857142857142857 0.01  0 0.04285714285714286 0.01  0.05555555555555555 0.04285714285714286 0.01  0.1111111111111111 0.04285714285714286 0.01  0.1666666666666667 0.04285714285714286 0.01  0.2222222222222222 0.04285714285714286 0.01  0.2777777777777778 0.04285714285714286 0.01  0.3333333333333333 0.04285714285714286 0.01  0.3888888888888889 0.04285714285714286 0.01  0.4444444444444444 0.04285714285714286 0.01  0.5 0.04285714285714286 0.01  0.5555555555555556 0.04285714285714286 0.01  0.6111111111111112 0.04285714285714286 0.01  0.6666666666666666 0.04285714285714286 0.01  0.7222222222222222 0.04285714285714286 0.01  0.7777777777777778 0.04285714285714286 0.01  0.8333333333333334 0.04285714285714286 0.01  0.8888888888888888 0.04285714285714286 0.01  0.9444444444444444 0.04285714285714286 0.01  1 0.04285714285714286 0.01  0 0.05714285714285715 0.01  0.05555555555555555 0.05714285714285715 0.01  0.1111111111111111 0.05714285714285715 0.01  0.1666666666666667 0.05714285714285715 0.01  0.2222222222222222 0.05714285714285715 0.01  0.2777777777777778 0.05714285714285715 0.01  0.3333333333333333 0.05714285714285715 0.01  0.3888888888888889 0.05714285714285715 0.01  0.4444444444444444 0.05714285714285715 0.01  0.5 0.05714285714285715 0.01  0.5555555555555556 0.05714285714285715 0.01  0.6111111111111112 0.05714285714285715 0.01  0.6666666666666666 0.05714285714285715 0.01  0.7222222222222222 0.05714285714285715 0.01  0.7777777777777778 0.05714285714285715 0.01  0.8333333333333334 0.05714285714285715 0.01  0.8888888888888888 0.05714285714285715 0.01  0.9444444444444444 0.05714285714285715 0.01  1 0.05714285714285715 0.01  0 0.07142857142857142 0.01  0.05555555555555555 0.07142857142857142 0.01  0.1111111111111111 0.07142857142857142 0.01  0.1666666666666667 0.07142857142857142 0.01  0.2222222222222222 0.07142857142857142 0.01  0.2777777777777778 0.07142857142857142 0.01  0.3333333333333333 0.07142857142857142 0.01  0.3888888888888889 0.07142857142857142 0.01  0.4444444444444444 0.07142857142857142 0.01  0.5 0.07142857142857142 0.01  0.5555555555555556 0.07142857142857142 0.01  0.6111111111111112 0.07142857142857142 0.01  0.6666666666666666 0.07142857142857142 0.01  0.7222222222222222 0.07142857142857142 0.01  0.7777777777777778 0.07142857142857142 0.01  0.8333333333333334 0.07142857142857142 0.01  0.8888888888888888 0.07142857142857142 0.01  
[...]
<PointData  Vectors="f_36"> 
<DataArray  type="Float64"  Name="f_36"  NumberOfComponents="3" format="ascii">0.0000000000000000e+00 0.0000000000000000e+00 0.0000000000000000e+00  1.7388686351185235e-03 -5.0090138595904428e-03 1.6187760225563355e-02  -1.5598945250469258e-04 -6.2570313770481077e-03 2.0782156384222587e-02  -7.2197663599736690e-04 -5.4021441463643705e-03 1.6292700794581529e-02  -2.3564463961187146e-04 -4.9779756832716874e-03 1.4894281396757622e-02  -6.3504607972913110e-05 -4.8626922390166043e-03 1.4719103555035142e-02  -6.4195015040553510e-05 -4.7198527503664392e-03 1.4315873087659808e-02  -5.6029263993295948e-05 -4.5887164881508943e-03 1.4032130061321414e-02  -5.9014075560481165e-05 -4.4590174876645754e-03 1.3719679984402749e-02  -6.1630596305309158e-05 -4.3205698821254966e-03 1.3393041346461703e-02  -6.4436355980321153e-05 -4.1764693472808060e-03 1.3050250537811135e-02  -6.2972511072012313e-05 -4.0280817256367661e-03 1.2697319226034474e-02  -7.7442720971604976e-05 -3.8672165772492659e-03 1.2332728188273724e-02  -6.4108288325239664e-05 -3.7089115069153010e-03 1.1912938042793040e-02  -9.1760469958794295e-05 -3.5410373910547688e-03 1.1715285590900681e-02  -1.4763439432409359e-04 -3.2260575603490307e-03 1.0700738636449041e-02  5.4060254800504439e-04 -3.2733786365784362e-03 9.4561555809481689e-03  1.0457862866394628e-03 -4.2182536038776700e-03 1.3198065264648515e-02  9.5791119522754570e-04 -4.8549855875767746e-03 1.5770849454317670e-02  0.0000000000000000e+00 0.0000000000000000e+00 0.0000000000000000e+00  1.9382355860721498e-03 -4.4957513444153496e-03 1.1389930170493409e-02  7.0081347085953574e-05 -5.8642721614633872e-03 1.4915044958423492e-02  -7.3717006654193255e-04 -5.1250635857337801e-03 1.1291594427217555e-02  -2.4670550186158739e-04 -4.6781738019521096e-03 1.0208783336689778e-02  -5.2756560605337266e-05 -4.5546046991658028e-03 1.0173149135915176e-02  -6.2977944762788581e-05 -4.4184042644360251e-03 9.9077761601952703e-03  -5.3475385812807841e-05 -4.2935581675567326e-03 9.7370674816504073e-03  -5.6071501681236435e-05 -4.1708005228910158e-03 9.5465561292582130e-03  -5.8940346627679232e-05 -4.0398659363952176e-03 9.3452205605844482e-03  -6.1744020203261018e-05 -3.9034129166966459e-03 9.1343758793321437e-03  -6.1621221534832171e-05 -3.7628880567541581e-03 8.9156771537861473e-03  -7.1329176233785155e-05 -3.6112255549443314e-03 8.6954035680014558e-03  -6.4976429150958174e-05 -3.4623206650271948e-03 8.4276743297966548e-03  -8.0465052453176198e-05 -3.3082894459739603e-03 8.3631395708722890e-03  -1.4681845002673569e-04 -3.0053395749354253e-03 7.6494835623823008e-03  4.0176769032669341e-04 -2.9864180831803118e-03 6.4222301491445805e-03  1.0200605913840192e-03 -3.8765408896885762e-03 9.2768042186173547e-03  8.4341871335536292e-04 -4.6528104680985559e-03 1.1731133851976508e-02  0.0000000000000000e+00 0.0000000000000000e+00 0.0000000000000000e+00  1.2538907336951226e-03 -3.0422753356626432e-03 5.4263145060904809e-03  1.2368678490852199e-04 -4.0834457608023653e-03 7.2991438922818562e-03  -4.6325007011652333e-04 -3.5386610946043329e-03 5.3440161738316679e-03  -1.5438537625040883e-04 -3.1790793151986103e-03 4.7875899513650042e-03  -2.0008432999696115e-05 -3.0892588169575113e-03 4.8415750139582502e-03  -2.9135394573212592e-05 -2.9968689267246525e-03 4.7548117475424631e-03  -2.1993129828670134e-05 -2.9115315599935339e-03 4.7222494954289526e-03  -2.2489335838553098e-05 -2.8271163111528797e-03 4.6832498255680831e-03  -2.3932039961776554e-05 -2.7369203702771266e-03 4.6406142715382679e-03  -2.5062739401151951e-05 -2.6426252083717092e-03 4.5965981968227017e-03  -2.5401364028688869e-05 -2.5456090799629229e-03 4.5494223208383212e-03  -2.9071030820801399e-05 -2.4416009441312636e-03 4.5058471737593987e-03  -2.7053347931234869e-05 -2.3397755108061453e-03 4.4351279626128962e-03  -3.6172471126346972e-05 -2.2402709900681190e-03 4.4925084228137104e-03  -7.7367406544036520e-05 -2.0119981356966671e-03 4.2109898405149069e-03  2.2687964210876089e-04 -1.9227209317494039e-03 3.4823441125462207e-03  6.7746243875955092e-04 -2.5465727728829178e-03 4.9795876383438619e-03  3.2690413838112382e-04 -3.3930614095440525e-03 6.5310997597981318e-03  0.0000000000000000e+00 0.0000000000000000e+00 0.0000000000000000e+00  6.6926529076465232e-06 -5.3829735898854965e-07 1.0119898411961759e-05  1.2594582252697832e-05 -1.6631391937584327e-06 3.7387496971323055e-05  1.7781065902683658e-05 -3.3514326486003927e-06 8.0189381140639870e-05  2.2298751392041075e-05 -5.5149275112325477e-06 1.3658173364638080e-04  2.6196373732197860e-05 -8.0863070547943648e-06 2.0475489834582909e-04  2.9522224227774406e-05 -1.1001916843574004e-05 2.8302913251458130e-04  3.2325111155438383e-05 -1.4204602466024436e-05 3.6986471443707837e-04  3.4653001108136195e-05 -1.7643375850719519e-05 4.6385791411619797e-04  3.6553157901055851e-05 -2.1272898432864226e-05 5.6373951088708172e-04  3.8072025971234580e-05 -2.5053510156348263e-05 6.6837251938852544e-04  3.9255179282272556e-05 -2.8950967739719112e-05 7.7674972801138531e-04  4.0147282583204470e-05 -3.2936196200681283e-05 8.8799115041969284e-04  4.0792121823168352e-05 -3.6985152047532279e-05 1.0013414113851330e-03  4.1232359219622331e-05 -4.1078271309356629e-05 1.1161671858965451e-03  4.1510572633026921e-05 -4.5200135250304453e-05 1.2319528443192698e-03  4.1667987485448554e-05 -4.9340479255409608e-05 1.3483059379800196e-03  4.1736544165894272e-05 -5.3492142589886278e-05 1.4649460860009938e-03  4.1751631890990135e-05 -5.7649024738266418e-05 1.5816579468622535e-03  0.0000000000000000e+00 0.0000000000000000e+00 0.0000000000000000e+00  6.3078694527323768e-06 -8.9062509349728432e-07 1.0013002426130957e-05  1.2433842991552707e-05 -1.9740978717732029e-06 3.7231203640937415e-05  1.7819546218090347e-05 -3.6244212839504826e-06 8.0012124439975813e-05  2.2512009784318223e-05 -5.7512185000685714e-06 1.3638724491699648e-04  2.6562988855050019e-05 -8.2883486926073802e-06 2.0454563734872757e-04  3.0021945810874711e-05 -1.1172530046024014e-05 2.8280702911065008e-04  3.2939422770571946e-05 -1.4346603468992301e-05 3.6963148986924097e-04  3.5364958474756081e-05 -1.7759553396420533e-05 4.6361508682119976e-04  3.7347356137679846e-05 -2.1365998279430290e-05 5.6348843327730077e-04  3.8934565488373118e-05 -2.5126225663288951e-05 6.6811437657037594e-04  4.0173606404375664e-05 -2.9005938359612995e-05 7.7648554672576659e-04  4.1110538485957326e-05 -3.2976005548213782e-05 8.8772179921484085e-04  4.1790459801435619e-05 -3.7012321835254062e-05 1.0010676107831639e-03  4.2257267283460202e-05 -4.1095293705552967e-05 1.1158895153695462e-03  4.2554555763899988e-05 -4.5209565799095124e-05 1.2316717659344029e-03  4.2725105116252015e-05 -4.9344344517655412e-05 1.3480219736768607e-03  4.2802836703169539e-05 -5.3491703801030347e-05 1.4646596613750024e-03  4.2821599464947878e-05 -5.7646761194130470e-05 1.5813688888594675e-03  0.0000000000000000e+00 0.0000000000000000e+00 0.0000000000000000e+00  1.1426907601482439e-03 3.1870827181847885e-03 6.4372557459319536e-03  -2.6716321132843231e-05 4.4465904818633082e-03 7.7511806690904721e-03  -3.7838373856302610e-04 4.0090705932883499e-03 5.6399922218965592e-03  -1.1979103989026926e-04 3.5961336674164655e-03 5.2624217350111758e-03  -2.6552100723159884e-05 3.4378580284357501e-03 5.2967849240132103e-03  -2.8506661443507877e-05 3.3279175148649802e-03 5.2054100693007714e-03  -2.4014594894238729e-05 3.2329636178022375e-03 5.1639246952923457e-03  -2.6532744925052401e-05 3.1322110622624042e-03 5.1058573845143588e-03  -2.7996077077801858e-05 3.0261310912074999e-03 5.0468767929896727e-03  -2.9640443124272652e-05 2.9144986729919818e-03 4.9834844962971109e-03  -2.9474379754669845e-05 2.7978939627143185e-03 4.9186058981452755e-03  -3.6376727369831221e-05 2.6799152172509982e-03 4.8505055860546256e-03  -2.7854932009691000e-05 2.5538976473251881e-03 4.7622956483576477e-03  -4.0743147519572512e-05 2.4096177738502501e-03 4.7967810311511224e-03  -1.1839905568232408e-04 2.1557638036651394e-03 4.4903897694585472e-03  1.8890305911803258e-04 1.9580218170723459e-03 3.7363062670195454e-03  5.5331002318945068e-04 2.4859468583587506e-03 4.9546759510475007e-03  2.9059854399593151e-04 3.2461139777842062e-03 6.2246372797458852e-03  0.0000000000000000e+00 0.0000000000000000e+00 0.0000000000000000e+00  1.9219547135894048e-03 4.0491090535107275e-03 1.2196788414591835e-02  5.0950659933065822e-06 6.0201010753856499e-03 1.5233280711986520e-02  -6.8258734841586974e-04 5.6374219378119194e-03 1.1513836244779424e-02  -2.0712898755501278e-04 5.0895298234599805e-03 1.0641663574884911e-02  -4.8467619442996309e-05 4.8425945737891885e-03 1.0599866214538598e-02  -6.7164758160852278e-05 4.6829548327528194e-03 1.0334966973753256e-02  -6.0557302576528533e-05 4.5529323354611918e-03 1.0164630933453577e-02  -6.5632362649544628e-05 4.4183811360662718e-03 9.9648621966705753e-03  -6.9512168199565300e-05 4.2773698534824978e-03 9.7559581565353787e-03  -7.3103465549238043e-05 4.1292499641188956e-03 9.5357504081742695e-03  -7.4039120157326404e-05 3.9740029113179472e-03 9.3068669243953021e-03  -8.3825331348589481e-05 3.8184611808396037e-03 9.0746527262680083e-03  -7.4023590193424615e-05 3.6487325424934235e-03 8.7974662650690937e-03  -8.4201142254952666e-05 3.4435730178975906e-03 8.6817966663767631e-03  -2.0975366388946870e-04 3.1069347229721361e-03 8.0170678442742019e-03  2.0665862927739449e-04 2.8657185004830272e-03 6.6592875606802469e-03  8.4685951451601621e-04 3.6167780934875768e-03 8.8533650818639134e-03  7.9436043873249242e-04 4.7695152187458402e-03 1.1064554144023991e-02  0.0000000000000000e+00 0.0000000000000000e+00 0.0000000000000000e+00  2.2576928202572974e-03 4.0010714562982988e-03 1.5949387024920266e-02  1.5399213687768406e-04 6.2722217849014647e-03 2.0777782517667622e-02  -8.4249997798683737e-04 5.9995196115142507e-03 1.6461219456536086e-02  -2.3480153876924450e-04 5.4496533296080748e-03 1.5125609719913776e-02  -2.8307781598901156e-05 5.1781781942297871e-03 1.4960090397079160e-02  -7.1022211223844038e-05 5.0023041962780675e-03 1.4551576270677498e-02  -6.3054576689690166e-05 4.8633316310149870e-03 1.4272606688107037e-02  -6.7797430170051505e-05 4.7231640434638915e-03 1.3966852308421261e-02  -7.2336918485726122e-05 4.5768933909711993e-03 1.3644617944407628e-02  -7.5853563176354611e-05 4.4236352012339475e-03 1.3307354934933006e-02  -7.7480289021995217e-05 4.2626406439465374e-03 1.2954827298112091e-02  -8.5302171058480048e-05 4.1017926685171157e-03 1.2599842444822299e-02  -7.8003180050875649e-05 3.9248762128877629e-03 1.2183131331720472e-02  -6.8314865666375575e-05 3.7124860530260806e-03 1.1905997592670478e-02  -2.0847855573889726e-04 3.3644081090015545e-03 1.1001714715422375e-02  8.3227633417219115e-05 3.0879844266518556e-03 9.3677645925465906e-03  8.2642369103996967e-04 3.8551237003524590e-03 1.2204376020534709e-02  9.5347603302611415e-04 5.1651393217392386e-03 1.5416733315434692e-02  0.0000000000000000e+00 0.0000000000000000e+00 0.0000000000000000e+00  6.5470169007343410e-04 -2.0448727917522151e-03 1.5862983125532637e-02  -5.8410046449940118e-05 -2.7393747639481167e-03 2.0667628919285398e-02  -3.6730172078111036e-04 -2.3514948631145316e-03 1.6177825337917933e-02  -1.3675625315221686e-04 -2.1369552038095377e-03 1.4733738004984570e-02  -2.1443389528106728e-05 -2.1081163572923760e-03 1.4575657370416143e-02  -2.3501480283350262e-05 -2.0509404429985599e-03 1.4181964053868843e-02  -2.0013687575984812e-05 -1.9929422221021818e-03 1.3900746231667689e-02  -2.0466877554720687e-05 -1.9403598602920403e-03 1.3592997468706789e-02  -2.1299004980045270e-05 -1.8825127342452508e-03 1.3270636498077321e-02  -2.2499232086142513e-05 -1.8223346624419887e-03 1.2932280624787235e-02  -2.0397690778427191e-05 -1.7604688838382821e-03 1.2584002944778154e-02  -2.8969047421768071e-05 -1.6920226975754536e-03 1.2224953547317206e-02  -2.7613488643779870e-05 -1.6282416037377541e-03 1.1807584911495309e-02  -9.8694861488754063e-06 -1.5658764657454829e-03 1.1619911826196270e-02  -1.1219211870291656e-05 -1.4063012961935226e-03 1.0615411535763331e-02  2.7449169368359057e-04 -1.3776228884545068e-03 9.3111682836631692e-03  5.1707164424998715e-04 -1.8474565621709451e-03 1.3006168274988465e-02  4.8807113892496498e-04 -2.2766469451052295e-03 1.5589818437981141e-02  0.0000000000000000e+00 0.0000000000000000e+00 0.0000000000000000e+00  8.1544184431628982e-04 -1.8026000513457787e-03 1.1168488292551244e-02  4.8317075850786865e-05 -2.4287757542199814e-03 1.4858357954246552e-02  -3.8030207154195596e-04 -2.1340989210180297e-03 1.1202344757066125e-02  -1.4855954280735122e-04 -1.9362431845421342e-03 1.0063752870883846e-02  -2.0277260156204619e-05 -1.8982875084726585e-03 1.0047250085221435e-02  -2.6210069964236137e-05 -1.8450522369891913e-03 9.7925517885072890e-03  -2.3445420612699296e-05 -1.7923511807712345e-03 9.6238066824133623e-03  -2.3426123776927888e-05 -1.7444240133668812e-03 9.4373412797046086e-03  -2.4824211635555528e-05 -1.6921780738294702e-03 9.2394283201515173e-03  -2.6121440021009646e-05 -1.6376795606373785e-03 9.0322444411894860e-03  -2.5355179878319407e-05 -1.5817263296178936e-03 8.8172714073476190e-03  -3.0873057802767314e-05 -1.5193594069707165e-03 8.6017899059809225e-03  -3.1430694112579055e-05 -1.4618295078302431e-03 8.3354139149246897e-03  -1.9160247836318504e-05 -1.4077021292706097e-03 8.2775579647653627e-03  -2.7048482344914009e-05 -1.2737905206427697e-03 7.5766629752105743e-03  2.3611248257779851e-04 -1.2440768260235885e-03 6.3016985137694555e-03  5.5050843730789769e-04 -1.6410530137190836e-03 9.1263906360286914e-03  4.7259104589542962e-04 -2.0672207957825365e-03 1.1637420912735202e-02  0.0000000000000000e+00 0.0000000000000000e+00 0.0000000000000000e+00  5.6971855833750143e-04 -1.1368579373434626e-03 5.1464523347970444e-03  7.5493903422646199e-05 -1.5373369952786777e-03 7.0367467317372073e-03  -2.4232641268641785e-04 -1.3683286021759346e-03 5.0482260665178956e-03  -9.6990896967593250e-05 -1.2391055208650298e-03 4.4625057004230723e-03  -8.1353973011171772e-06 -1.2077809537102495e-03 4.5394079617373509e-03  -1.3350915890613084e-05 -1.1730312046621166e-03 4.4676663945222459e-03  -1.1624145521422213e-05 -1.1400528643512088e-03 4.4422692372349509e-03  -1.0930532302886970e-05 -1.1095892874983214e-03 4.4115657840464468e-03  -1.1885116100025033e-05 -1.0766613417468203e-03 4.3768691045336181e-03  -1.2447363310342385e-05 -1.0421693452240979e-03 4.3411799170702085e-03  -1.2550168998876539e-05 -1.0069160820574874e-03 4.3026093476654691e-03  -1.4545237031269711e-05 -9.6746406469978906e-04 4.2687646508446858e-03  -1.5352073165645771e-05 -9.3066174253788627e-04 4.2060562357918085e-03  -1.0898977006989264e-05 -8.9753600530641036e-04 4.2741511879838883e-03  -1.6643401718927606e-05 -8.1582029060723476e-04 4.0073538464662347e-03  1.4320352201044979e-04 -7.9205858359951756e-04 3.2455643068177473e-03  3.8404248384101366e-04 -1.0336491286625769e-03 4.6979224674963274e-03  1.9819409258375298e-04 -1.3708600891174192e-03 6.2658617599873770e-03  0.0000000000000000e+00 0.0000000000000000e+00 0.0000000000000000e+00  3.1571647977703948e-06 -4.9390574662054685e-07 9.8427933357117094e-06  6.1279797302609941e-06 -1.6031440390768747e-06 3.7139661073114894e-05  8.7154217191774595e-06 -3.2697877207295905e-06 7.9971341701578596e-05  1.0969826772650450e-05 -5.4154958560626020e-06 1.3639207566944160e-04  1.2916758349275144e-05 -7.9710283055147301e-06 2.0459153636363290e-04  1.4579954583954931e-05 -1.0872606468496006e-05 2.8288996110073153e-04  1.5983446964881091e-05 -1.4062924553411364e-05 3.6974763523317462e-04  1.7150870068286034e-05 -1.7490851879441256e-05 4.6376086869793842e-04  1.8105511231862020e-05 -2.1110926160012285e-05 5.6366047285456844e-04  1.8870265720421087e-05 -2.4883362192911790e-05 6.6830949878973159e-04  1.9467609569054099e-05 -2.8773795790595351e-05 7.7670077296257455e-04  1.9919574347243458e-05 -3.2753033807025677e-05 8.8795434783166120e-04  2.0247784626269604e-05 -3.6796922521882857e-05 1.0013148882233348e-03  2.0473332983521187e-05 -4.0885772931425914e-05 1.1161491184695385e-03  2.0617085957847207e-05 -4.5004139883149380e-05 1.2319414200765522e-03  2.0699501061191727e-05 -4.9141713025347528e-05 1.3482994271408510e-03  2.0736872902537449e-05 -5.3290972070105738e-05 1.4649430224460437e-03  2.0745784431167621e-05 -5.7445771936104769e-05 1.5816556182942894e-03  0.0000000000000000e+00 0.0000000000000000e+00 0.0000000000000000e+00  3.1854221822584965e-06 -7.5363996213664048e-07 9.6790906362920728e-06  6.3540526401685130e-06 -1.8103366881521338e-06 3.6957471766295414e-05  9.0908853884890002e-06 -3.4495758831070839e-06 7.9772440044812269e-05  1.1474835677144435e-05 -5.5711669774835170e-06 1.3617855067173939e-04  1.3533218111870725e-05 -8.1044715682855554e-06 2.0436542203087647e-04  1.5291135892249845e-05 -1.0985646140223510e-05 2.8265304529732726e-04  1.6774238055223624e-05 -1.4157372143682908e-05 3.6950149355152267e-04  1.8007699530429946e-05 -1.7568493878704319e-05 4.6350688789871622e-04  1.9016288205403833e-05 -2.1173521803451249e-05 5.6339987451927678e-04  1.9824344739053011e-05 -2.4932637585667430e-05 6.6804333906301660e-04  2.0455729313495253e-05 -2.8811442984862357e-05 7.7642995197330783e-04  2.0933805115828252e-05 -3.2780708816762271e-05 8.8767961023620374e-04  2.1281440763082558e-05 -3.6816243893167470e-05 1.0010368325121736e-03  2.1520889532634926e-05 -4.0898331882452103e-05 1.1158682106661968e-03  2.1674161589905071e-05 -4.5011525841443413e-05 1.2316580243733070e-03  2.1762836672130553e-05 -4.9145287598361241e-05 1.3480138794887120e-03  2.1804192859726124e-05 -5.3291706906071435e-05 1.4646556000976552e-03  2.1814935576334979e-05 -5.7445047445444630e-05 1.5813669663754934e-03  0.0000000000000000e+00 0.0000000000000000e+00 0.0000000000000000e+00  5.9479371980761329e-04 1.0992754783446656e-03 5.9434143759278567e-03  3.9969386374363232e-05 1.5052133964102961e-03 6.9996801739008819e-03  -2.1262242110464436e-04 1.3882601794258556e-03 4.8381622084974424e-03  -8.3453263652365892e-05 1.2517755213238334e-03 4.5157085787391480e-03  -1.2430321207834769e-05 1.1763960459964997e-03 4.6058478748119656e-03  -1.5494712440954983e-05 1.1327337825111675e-03 4.5418498381142817e-03  -1.3559140878306162e-05 1.0991111612718076e-03 4.5195839073670285e-03  -1.5038246985988916e-05 1.0607910501649364e-03 4.4813655905579595e-03  -1.5989941393172124e-05 1.0211251134682703e-03 4.4429017840876160e-03  -1.7073992971345055e-05 9.7927827316462361e-04 4.4011697160872510e-03  -1.6623060725584900e-05 9.3523145092728696e-04 4.3589208610808425e-03  -2.0706209436704410e-05 8.9183440187641234e-04 4.3143554172376834e-03  -1.9509421687203926e-05 8.4524006054418894e-04 4.2492403379231578e-03  -1.1179743970745297e-05 7.8773038897272582e-04 4.3131367497867600e-03  -3.8429877098482583e-05 6.9297817953964370e-04 4.0547436414498823e-03  9.6536404270957028e-05 6.2262481191538161e-04 3.3161270239378251e-03  3.2045273430030056e-04 8.3044467939736590e-04 4.4617057233624739e-03  1.6074374275557198e-04 1.1105584591716837e-03 5.5475040606915559e-03  0.0000000000000000e+00 0.0000000000000000e+00 0.0000000000000000e+00  8.6663002750752584e-04 1.7467731288639684e-03 1.1939959849391873e-02  5.6760270986739042e-05 2.6117990091036355e-03 1.5001356025618778e-02  -3.6115035384166091e-04 2.4934519464401448e-03 1.1178960599196389e-02  -1.3252642551302922e-04 2.2638365150391389e-03 1.0271037861744008e-02  -1.6668421317752466e-05 2.1233997301329690e-03 1.0268830312524291e-02  -3.2514776302144232e-05 2.0426565613516968e-03 1.0022911623578563e-02  -3.1629743045541991e-05 1.9840384196571016e-03 9.8599433827501037e-03  -3.3772878285303888e-05 1.9197339050097437e-03 9.6684473358673393e-03  -3.6274423465738602e-05 1.8529421656416447e-03 9.4670571724709811e-03  -3.8287182226577416e-05 1.7827216277678977e-03 9.2548227423852585e-03  -3.8425423017468810e-05 1.7085224719213111e-03 9.0341579740165004e-03  -4.3676836180070125e-05 1.6358034626333623e-03 8.8108604161569251e-03  -4.2054242321397588e-05 1.5560131292212