<?xml version="1.0"?>
<VTKFile type="UnstructuredGrid"  version="0.1"  >
<UnstructuredGrid>
<Piece  NumberOfPoints="760" NumberOfCells="3024">
<Points>
<DataArray  type="Float64"  NumberOfComponents="3"  format="ascii">0 0 0  0.05555555555555555 0 0  0.1111111111111111 0 0  0.1666666666666667 0 0  0.2222222222222222 0 0  0.2777777777777778 0 0  0.3333333333333333 0 0  0.3888888888888889 0 0  0.4444444444444444 0 0  0.5 0 0  0.5555555555555556 0 0  0.6111111111111112 0 0  0.6666666666666666 0 0  0.7222222222222222 0 0  0.7777777777777778 0 0  0.8333333333333334 0 0  0.8888888888888888 0 0  0.9444444444444444 0 0  1 0 0  0 0.01428571428571429 0  0.05555555555555555 0.01428571428571429 0  0.1111111111111111 0.01428571428571429 0  0.1666666666666667 0.01428571428571429 0  0.2222222222222222 0.01428571428571429 0  0.2777777777777778 0.01428571428571429 0  0.3333333333333333 0.01428571428571429 0  0.3888888888888889 0.01428571428571429 0  0.4444444444444444 0.01428571428571429 0  0.5 0.01428571428571429 0  0.5555555555555556 0.01428571428571429 0  0.6111111111111112 0.01428571428571429 0  0.6666666666666666 0.01428571428571429 0  0.7222222222222222 0.01428571428571429 0  0.7777777777777778 0.01428571428571429 0  0.8333333333333334 0.01428571428571429 0  0.8888888888888888 0.01428571428571429 0  0.9444444444444444 0.01428571428571429 0  1 0.01428571428571429 0  0 0.02857142857142857 0  0.05555555555555555 0.02857142857142857 0  0.1111111111111111 0.02857142857142857 0  0.1666666666666667 0.02857142857142857 0  0.2222222222222222 0.02857142857142857 0  0.2777777777777778 0.02857142857142857 0  0.3333333333333333 0.02857142857142857 0  0.3888888888888889 0.02857142857142857 0  0.4444444444444444 0.02857142857142857 0  0.5 0.02857142857142857 0  0.5555555555555556 0.02857142857142857 0  0.6111111111111112 0.02857142857142857 0  0.6666666666666666 0.02857142857142857 0  0.7222222222222222 0.02857142857142857 0  0.7777777777777778 0.02857142857142857 0  0.8333333333333334 0.02857142857142857 0  0.8888888888888888 0.02857142857142857 0  0.9444444444444444 0.02857142857142857 0  1 0.02857142857142857 0  0 0.04285714285714286 0  0.05555555555555555 0.04285714285714286 0  0.1111111111111111 0.04285714285714286 0  0.1666666666666667 0.04285714285714286 0  0.2222222222222222 0.04285714285714286 0  0.2777777777777778 0.04285714285714286 0  0.3333333333333333 0.04285714285714286 0  0.3888888888888889 0.04285714285714286 0  0.4444444444444444 0.04285714285714286 0  0.5 0.04285714285714286 0  0.5555555555555556 0.04285714285714286 0  0.6111111111111112 0.04285714285714286 0  0.6666666666666666 0.04285714285714286 0  0.7222222222222222 0.04285714285714286 0  0.7777777777777778 0.04285714285714286 0  0.8333333333333334 0.04285714285714286 0  0.8888888888888888 0.04285714285714286 0  0.9444444444444444 0.04285714285714286 0  1 0.04285714285714286 0  0 0.05714285714285715 0  0.05555555555555555 0.05714285714285715 0  0.1111111111111111 0.05714285714285715 0  0.1666666666666667 0.05714285714285715 0  0.2222222222222222 0.05714285714285715 0  0.2777777777777778 0.05714285714285715 0  0.3333333333333333 0.05714285714285715 0  0.3888888888888889 0.05714285714285715 0  0.4444444444444444 0.05714285714285715 0  0.5 0.05714285714285715 0  0.5555555555555556 0.05714285714285715 0  0.6111111111111112 0.05714285714285715 0  0.6666666666666666 0.05714285714285715 0  0.7222222222222222 0.05714285714285715 0  0.7777777777777778 0.05714285714285715 0  0.8333333333333334 0.05714285714285715 0  0.8888888888888888 0.05714285714285715 0  0.9444444444444444 0.05714285714285715 0  1 0.05714285714285715 0  0 0.07142857142857142 0  0.05555555555555555 0.07142857142857142 0  0.1111111111111111 0.07142857142857142 0  0.1666666666666667 0.07142857142857142 0  0.2222222222222222 0.07142857142857142 0  0.2777777777777778 0.07142857142857142 0  0.3333333333333333 0.07142857142857142 0  0.3888888888888889 0.07142857142857142 0  0.4444444444444444 0.07142857142857142 0  0.5 0.07142857142857142 0  0.5555555555555556 0.07142857142857142 0  0.6111111111111112 0.07142857142857142 0  0.6666666666666666 0.07142857142857142 0  0.7222222222222222 0.07142857142857142 0  0.7777777777777778 0.07142857142857142 0  0.8333333333333334 0.07142857142857142 0  0.8888888888888888 0.07142857142857142 0  0.9444444444444444 0.07142857142857142 0  1 0.07142857142857142 0  0 0.08571428571428573 0  0.05555555555555555 0.08571428571428573 0  0.1111111111111111 0.08571428571428573 0  0.1666666666666667 0.08571428571428573 0  0.2222222222222222 0.08571428571428573 0  0.2777777777777778 0.08571428571428573 0  0.3333333333333333 0.08571428571428573 0  0.3888888888888889 0.08571428571428573 0  0.4444444444444444 0.08571428571428573 0  0.5 0.08571428571428573 0  0.5555555555555556 0.08571428571428573 0  0.6111111111111112 0.08571428571428573 0  0.6666666666666666 0.08571428571428573 0  0.7222222222222222 0.08571428571428573 0  0.7777777777777778 0.08571428571428573 0  0.8333333333333334 0.08571428571428573 0  0.8888888888888888 0.08571428571428573 0  0.9444444444444444 0.08571428571428573 0  1 0.08571428571428573 0  0 0.1 0  0.05555555555555555 0.1 0  0.1111111111111111 0.1 0  0.1666666666666667 0.1 0  0.2222222222222222 0.1 0  0.2777777777777778 0.1 0  0.3333333333333333 0.1 0  0.3888888888888889 0.1 0  0.4444444444444444 0.1 0  0.5 0.1 0  0.5555555555555556 0.1 0  0.6111111111111112 0.1 0  0.6666666666666666 0.1 0  0.7222222222222222 0.1 0  0.7777777777777778 0.1 0  0.8333333333333334 0.1 0  0.8888888888888888 0.1 0  0.9444444444444444 0.1 0  1 0.1 0  0 0 0.01  0.05555555555555555 0 0.01  0.1111111111111111 0 0.01  0.1666666666666667 0 0.01  0.2222222222222222 0 0.01  0.2777777777777778 0 0.01  0.3333333333333333 0 0.01  0.3888888888888889 0 0.01  0.4444444444444444 0 0.01  0.5 0 0.01  0.5555555555555556 0 0.01  0.6111111111111112 0 0.01  0.6666666666666666 0 0.01  0.7222222222222222 0 0.01  0.7777777777777778 0 0.01  0.8333333333333334 0 0.01  0.8888888888888888 0 0.01  0.9444444444444444 0 0.01  1 0 0.01  0 0.01428571428571429 0.01  0.05555555555555555 0.01428571428571429 0.01  0.1111111111111111 0.01428571428571429 0.01  0.1666666666666667 0.01428571428571429 0.01  0.2222222222222222 0.01428571428571429 0.01  0.2777777777777778 0.01428571428571429 0.01  0.3333333333333333 0.01428571428571429 0.01  0.3888888888888889 0.01428571428571429 0.01  0.4444444444444444 0.01428571428571429 0.01  0.5 0.01428571428571429 0.01  0.5555555555555556 0.01428571428571429 0.01  0.6111111111111112 0.01428571428571429 0.01  0.6666666666666666 0.01428571428571429 0.01  0.7222222222222222 0.01428571428571429 0.01  0.7777777777777778 0.01428571428571429 0.01  0.8333333333333334 0.01428571428571429 0.01  0.8888888888888888 0.01428571428571429 0.01  0.9444444444444444 0.01428571428571429 0.01  1 0.01428571428571429 0.01  0 0.02857142857142857 0.01  0.05555555555555555 0.02857142857142857 0.01  0.1111111111111111 0.02857142857142857 0.01  0.1666666666666667 0.02857142857142857 0.01  0.2222222222222222 0.02857142857142857 0.01  0.2777777777777778 0.02857142857142857 0.01  0.3333333333333333 0.02857142857142857 0.01  0.3888888888888889 0.02857142857142857 0.01  0.4444444444444444 0.02857142857142857 0.01  0.5 0.02857142857142857 0.01  0.5555555555555556 0.02857142857142857 0.01  0.6111111111111112 0.02857142857142857 0.01  0.6666666666666666 0.02857142857142857 0.01  0.7222222222222222 0.02857142857142857 0.01  0.7777777777777778 0.02857142857142857 0.01  0.8333333333333334 0.02857142857142857 0.01  0.8888888888888888 0.02857142857142857 0.01  0.9444444444444444 0.02857142857142857 0.01  1 0.02857142857142857 0.01  0 0.04285714285714286 0.01  0.05555555555555555 0.04285714285714286 0.01  0.1111111111111111 0.04285714285714286 0.01  0.1666666666666667 0.04285714285714286 0.01  0.2222222222222222 0.04285714285714286 0.01  0.2777777777777778 0.04285714285714286 0.01  0.3333333333333333 0.04285714285714286 0.01  0.3888888888888889 0.04285714285714286 0.01  0.4444444444444444 0.04285714285714286 0.01  0.5 0.04285714285714286 0.01  0.5555555555555556 0.04285714285714286 0.01  0.6111111111111112 0.04285714285714286 0.01  0.6666666666666666 0.04285714285714286 0.01  0.7222222222222222 0.04285714285714286 0.01  0.7777777777777778 0.04285714285714286 0.01  0.8333333333333334 0.04285714285714286 0.01  0.8888888888888888 0.04285714285714286 0.01  0.9444444444444444 0.04285714285714286 0.01  1 0.04285714285714286 0.01  0 0.05714285714285715 0.01  0.05555555555555555 0.05714285714285715 0.01  0.1111111111111111 0.05714285714285715 0.01  0.1666666666666667 0.05714285714285715 0.01  0.2222222222222222 0.05714285714285715 0.01  0.2777777777777778 0.05714285714285715 0.01  0.3333333333333333 0.05714285714285715 0.01  0.3888888888888889 0.05714285714285715 0.01  0.4444444444444444 0.05714285714285715 0.01  0.5 0.05714285714285715 0.01  0.5555555555555556 0.05714285714285715 0.01  0.6111111111111112 0.05714285714285715 0.01  0.6666666666666666 0.05714285714285715 0.01  0.7222222222222222 0.05714285714285715 0.01  0.7777777777777778 0.05714285714285715 0.01  0.8333333333333334 0.05714285714285715 0.01  0.8888888888888888 0.05714285714285715 0.01  0.9444444444444444 0.05714285714285715 0.01  1 0.05714285714285715 0.01  0 0.07142857142857142 0.01  0.05555555555555555 0.07142857142857142 0.01  0.1111111111111111 0.07142857142857142 0.01  0.1666666666666667 0.07142857142857142 0.01  0.2222222222222222 0.07142857142857142 0.01  0.2777777777777778 0.07142857142857142 0.01  0.3333333333333333 0.07142857142857142 0.01  0.3888888888888889 0.07142857142857142 0.01  0.4444444444444444 0.07142857142857142 0.01  0.5 0.07142857142857142 0.01  0.5555555555555556 0.07142857142857142 0.01  0.6111111111111112 0.07142857142857142 0.01  0.6666666666666666 0.07142857142857142 0.01  0.7222222222222222 0.07142857142857142 0.01  0.7777777777777778 0.07142857142857142 0.01  0.8333333333333334 0.07142857142857142 0.01  0.8888888888888888 0.07142857142857142 0.01  
[...]
<PointData  Vectors="f_36"> 
<DataArray  type="Float64"  Name="f_36"  NumberOfComponents="3" format="ascii">0.0000000000000000e+00 0.0000000000000000e+00 0.0000000000000000e+00  -2.3820069199707865e-03 4.8242062844696355e-03 -1.2103654122112069e-02  -1.8814093935733197e-03 8.2444248119045022e-03 -2.3571262387658179e-02  -2.2896042258256338e-05 9.1363016437237699e-03 -2.8050940725846792e-02  1.3680573147678112e-03 7.6587708732977298e-03 -2.3395245215517998e-02  9.8182421813212441e-04 5.9578875960921438e-03 -1.6640231882265100e-02  1.3889962139705610e-04 5.5323470770782049e-03 -1.5599636205212987e-02  9.2805638333370269e-05 5.4624130705791321e-03 -1.6123782709710842e-02  2.2274839466916065e-04 5.0929958237481629e-03 -1.4923356207678137e-02  2.3038781184932757e-04 4.7050680017173396e-03 -1.3902486630774981e-02  2.5107516261748281e-04 4.3117755549384636e-03 -1.2858334277385810e-02  1.4534145150250525e-04 3.9680118619108704e-03 -1.1841128137546600e-02  2.4476183518869253e-04 3.6248878483853423e-03 -1.1459072094702361e-02  4.8165600131397823e-04 2.9123292788195017e-03 -9.3636709667891498e-03  1.5965486974426986e-04 2.2731870519465255e-03 -6.6856529806621117e-03  -2.3346266741583775e-04 2.3231108580027871e-03 -7.0521552030569992e-03  -2.0431625212378782e-04 2.5908686080736132e-03 -8.2033123308097918e-03  -7.8679450483885304e-07 2.7524579738307481e-03 -8.7699535220253019e-03  1.9831782549721479e-04 2.9566805612686992e-03 -8.8197873684624888e-03  0.0000000000000000e+00 0.0000000000000000e+00 0.0000000000000000e+00  -2.3279367492697058e-03 4.1593289241795292e-03 -7.7817049342387415e-03  -1.9319053968681419e-03 7.4224126471208888e-03 -1.6088450947812260e-02  -2.0592251422241602e-04 8.4686025647197297e-03 -1.9698837780298430e-02  1.2475564650159001e-03 7.2294573892825592e-03 -1.6447284634928696e-02  1.0476742274469224e-03 5.6008751710150051e-03 -1.1282855395045409e-02  1.6469229426072711e-04 5.1259768287996643e-03 -1.0555035427195655e-02  4.8933053749824626e-05 5.0651753604944926e-03 -1.1153957009870170e-02  2.1628440511997979e-04 4.7375042605557437e-03 -1.0321652383924905e-02  2.1899738761008711e-04 4.3776406746885753e-03 -9.6355043577845932e-03  2.3680276262038184e-04 4.0171105764445804e-03 -8.9603442002999158e-03  1.5632584892457941e-04 3.6981742474866269e-03 -8.2530174280757047e-03  2.0269226810689254e-04 3.3962951126124690e-03 -8.1488096190065126e-03  4.5020510906139280e-04 2.7529327167914825e-03 -6.7467483531162753e-03  2.2708231288325105e-04 2.1223052614104850e-03 -4.6749389423700796e-03  -2.0107191890815176e-04 2.1243200141702638e-03 -4.9498537324531898e-03  -2.1890622717400408e-04 2.3733997933725061e-03 -5.8638252493690094e-03  -5.7322785518886785e-05 2.5390287606694389e-03 -6.3168856960327370e-03  2.0270134711526550e-04 2.8120111876650676e-03 -6.4978689261526003e-03  0.0000000000000000e+00 0.0000000000000000e+00 0.0000000000000000e+00  -1.4312420324602293e-03 2.6044830498167769e-03 -3.4023570195813127e-03  -1.2410439476107217e-03 4.8840353283601135e-03 -7.5229640571479106e-03  -1.9935618554086222e-04 5.7620745046922583e-03 -9.5100889879819323e-03  7.3809052673141646e-04 4.9745531372164401e-03 -8.0074083215531996e-03  6.7955684517818362e-04 3.7810317998857833e-03 -5.3411442830161382e-03  1.1021072437330002e-04 3.4126715704880469e-03 -4.9927047995293782e-03  7.0292062353695887e-06 3.4004269990205475e-03 -5.4165130298276824e-03  1.2477993856842455e-04 3.1904180740616370e-03 -5.0487625387523796e-03  1.2588690913679614e-04 2.9483417765655729e-03 -4.7569250786921096e-03  1.3381495041574085e-04 2.7095823289570802e-03 -4.4912200582386758e-03  9.3250059038123243e-05 2.4971014033493854e-03 -4.1781112564602827e-03  1.0567514311619941e-04 2.3188416888773179e-03 -4.2329472265898276e-03  2.6272374658038283e-04 1.8901703551326803e-03 -3.6345897610221643e-03  1.5762134352131875e-04 1.4178215998055679e-03 -2.5733692630169548e-03  -1.2471068333066781e-04 1.3981161372609936e-03 -2.7357617540612741e-03  -1.5518746061926416e-04 1.5824791323064791e-03 -3.2593326688782134e-03  -7.8932945010592128e-05 1.7010586149007584e-03 -3.5320071180051276e-03  2.5016516178926070e-04 2.0340776174092188e-03 -3.7483477745890920e-03  0.0000000000000000e+00 0.0000000000000000e+00 0.0000000000000000e+00  -5.3946017864120768e-06 5.0417975592119472e-07 -8.3199374796100948e-06  -1.0017794869611266e-05 1.5889008026131408e-06 -3.0325127572301435e-05  -1.3930840461412297e-05 3.2078888313786111e-06 -6.4303069176729961e-05  -1.7215473910394469e-05 5.2619775615689554e-06 -1.0832190272984210e-04  -1.9967108218387492e-05 7.6762176380545109e-06 -1.6076591441503246e-04  -2.2250450307795073e-05 1.0388270584913673e-05 -2.2025723366674846e-04  -2.4112843343606130e-05 1.3343860198567911e-05 -2.8554116031947048e-04  -2.5605806575294445e-05 1.6493969029789515e-05 -3.5549523394680377e-04  -2.6781541523894973e-05 1.9796475455212027e-05 -4.2915647367537413e-04  -2.7687595632978017e-05 2.3216153079097612e-05 -5.0570104216160310e-04  -2.8367858409268104e-05 2.6723762520562325e-05 -5.8443392904098399e-04  -2.8862157667004272e-05 3.0295565473815956e-05 -6.6477904167500882e-04  -2.9209283183593187e-05 3.3912490036936888e-05 -7.4626562565874625e-04  -2.9445063300023911e-05 3.7560426994035107e-05 -8.2853770009847438e-04  -2.9593466415809972e-05 4.1229888572942996e-05 -9.1133138967450038e-04  -2.9671946312082041e-05 4.4913094279566442e-05 -9.9442435032014295e-04  -2.9701621080405247e-05 4.8602634829555575e-05 -1.0776440657918247e-03  -2.9706992818316138e-05 5.2293903317306469e-05 -1.1608867260998502e-03  0.0000000000000000e+00 0.0000000000000000e+00 0.0000000000000000e+00  -5.1242634117610411e-06 7.8339588098283390e-07 -8.2326930445880710e-06  -9.9660071031218516e-06 1.8253863334769543e-06 -3.0195907537173607e-05  -1.4068159365474615e-05 3.4061717209809357e-06 -6.4153259738020866e-05  -1.7509043345884995e-05 5.4280102465157766e-06 -1.0815395189597283e-04  -2.0391433117924313e-05 7.8148329348080740e-06 -1.6058326272195566e-04  -2.2786404236585430e-05 1.0501723624044317e-05 -2.2006263991145074e-04  -2.4742601109772348e-05 1.3434677037417768e-05 -2.8533603177995017e-04  -2.6312307065114910e-05 1.6565402036321279e-05 -3.5528070535833644e-04  -2.7550161682979083e-05 1.9851440049241492e-05 -4.2893372865445128e-04  -2.8505715670205663e-05 2.3257289921540061e-05 -5.0547102783584307e-04  -2.9224700064410701e-05 2.6753477742302285e-05 -5.8419743781520038e-04  -2.9748638506693190e-05 3.0316092605837978e-05 -6.6453670654443881e-04  -3.0117276211131163e-05 3.3926216091126411e-05 -7.4601794409892357e-04  -3.0368550855739984e-05 3.7569102245035605e-05 -8.2828521863392683e-04  -3.0528878330286022e-05 4.1234256210870084e-05 -9.1107466471983159e-04  -3.0615673352280879e-05 4.4914138701928548e-05 -9.9416392714072612e-04  -3.0649808665117898e-05 4.8601801769865585e-05 -1.0773807754310949e-03  -3.0656541965922952e-05 5.2292348835078716e-05 -1.1606214773536060e-03  0.0000000000000000e+00 0.0000000000000000e+00 0.0000000000000000e+00  -1.5078802562829526e-03 -2.7706098820958992e-03 -4.6557750711822962e-03  -1.1071208619518450e-03 -5.1925737280507428e-03 -8.8589055398669240e-03  -7.3566688751446182e-06 -6.2643378126072064e-03 -1.0305894419086872e-02  7.8716570651670640e-04 -5.5789033977609662e-03 -8.2683084601255698e-03  5.4338576238187200e-04 -4.2964851060338163e-03 -5.6786263929222260e-03  3.9968865998900121e-05 -3.8146697565002536e-03 -5.6133912454089498e-03  2.9032315817658754e-05 -3.7826186911223349e-03 -5.9582389597468022e-03  1.2365405639044798e-04 -3.5634517170289332e-03 -5.5120657915017262e-03  1.2528382545064605e-04 -3.2950061710227191e-03 -5.2217191502604747e-03  1.3195153696384193e-04 -3.0394075372241472e-03 -4.9078980742297334e-03  7.0167266502314975e-05 -2.7811208780970163e-03 -4.5782826368990269e-03  1.1510041813049727e-04 -2.5696673518265985e-03 -4.5873833918334481e-03  2.9002868658378154e-04 -2.1571395939794635e-03 -3.9415621384084141e-03  1.8043993327257504e-04 -1.6011858423209029e-03 -2.8316750066736270e-03  -4.9916971328663323e-05 -1.4080151021585168e-03 -2.8428334329765929e-03  -8.2058172655220815e-05 -1.4591580228556032e-03 -3.1563993175772625e-03  -2.3494609593361743e-05 -1.5309339296562757e-03 -3.2893169057223847e-03  1.3824980781911033e-04 -1.7295000859692180e-03 -3.2727170656151566e-03  0.0000000000000000e+00 0.0000000000000000e+00 0.0000000000000000e+00  -2.4112949568517862e-03 -3.5549539755355963e-03 -8.9885760979089326e-03  -1.8499655465014804e-03 -6.9924934653846612e-03 -1.7194227468025361e-02  -8.0885939818204741e-05 -8.6765210031558605e-03 -2.0252246370475555e-02  1.2831797775040986e-03 -7.9444253455682977e-03 -1.6657267455070516e-02  9.6254273636258163e-04 -6.2123082679671673e-03 -1.1642210712307127e-02  8.3855334315890065e-05 -5.4450355701300621e-03 -1.1168674226323594e-02  3.6701005122164445e-05 -5.3589042295923038e-03 -1.1708441757410997e-02  2.2106608901024152e-04 -5.0687202755071723e-03 -1.0807291360741688e-02  2.1949572177169558e-04 -4.6933040059264543e-03 -1.0124923264383759e-02  2.3227883327639283e-04 -4.3379645316241593e-03 -9.4423991777424117e-03  1.4182074978530475e-04 -3.9713526543762850e-03 -8.6814396720717637e-03  1.8520006419799534e-04 -3.6623122192786053e-03 -8.5085664470561529e-03  4.7563367813981632e-04 -3.1127362936493410e-03 -7.2247859638104204e-03  3.3960257259414429e-04 -2.3563877329924022e-03 -5.0442850617617128e-03  -6.0990400991894065e-05 -2.0553020952221398e-03 -4.8860523943560861e-03  -1.2018753734166093e-04 -2.1072986874489581e-03 -5.3984845759103058e-03  -1.1455707600276143e-05 -2.2203802618659292e-03 -5.5918694568519558e-03  1.0608235319405628e-04 -2.5526761147054398e-03 -5.5287100117061014e-03  0.0000000000000000e+00 0.0000000000000000e+00 0.0000000000000000e+00  -2.5131986933899426e-03 -3.4729094053585702e-03 -1.2164260946887908e-02  -2.0801456273924468e-03 -7.2168780343435275e-03 -2.3429623804448300e-02  -2.6424251389702398e-04 -9.1748211253946058e-03 -2.7995022439469500e-02  1.3248520827975317e-03 -8.5568063111391892e-03 -2.3723305310724932e-02  1.1511659537526975e-03 -6.7439649366181935e-03 -1.7071799110868788e-02  1.0471600478538013e-04 -5.8695294023499330e-03 -1.5955426871141345e-02  -1.8235421720020200e-05 -5.7503530627433077e-03 -1.6492286855702105e-02  2.3398443423131897e-04 -5.4483895886598861e-03 -1.5302776164934386e-02  2.2722141774003120e-04 -5.0501810345476338e-03 -1.4279685966763286e-02  2.3935636960646859e-04 -4.6700986751512449e-03 -1.3300635806069043e-02  1.6037446708683220e-04 -4.2768472582512904e-03 -1.2191775194897454e-02  1.4972925746125536e-04 -3.9510421429298217e-03 -1.1758944068907930e-02  4.6846823435033578e-04 -3.3827364038046784e-03 -1.0017915427592164e-02  4.1666916815147348e-04 -2.5748609942611621e-03 -7.1109413937058613e-03  -5.2477237867525413e-05 -2.2299556667166299e-03 -6.6958545894050319e-03  -1.4052981032398732e-04 -2.2720166312687087e-03 -7.3049633586647336e-03  1.7383689179372052e-05 -2.3891251835774611e-03 -7.5796757328082465e-03  1.1836919726681920e-04 -2.7828843918425695e-03 -7.6397884947667196e-03  0.0000000000000000e+00 0.0000000000000000e+00 0.0000000000000000e+00  -9.6078972034141931e-04 1.9204027722482951e-03 -1.1721350660421875e-02  -8.8862561484805646e-04 3.5330973599151444e-03 -2.3267019572614546e-02  -1.0094664828877374e-04 4.0329288310777959e-03 -2.7871300856479805e-02  5.9725700013721502e-04 3.4139068357765998e-03 -2.3291797422057316e-02  5.2161280153612737e-04 2.6046239207003002e-03 -1.6490840442859190e-02  1.1879132212869516e-04 2.3867392310901411e-03 -1.5412508324945222e-02  3.1339308696095710e-05 2.3833623599080990e-03 -1.5976035058790746e-02  8.4467942784951890e-05 2.2317557066043547e-03 -1.4799604492185885e-02  9.9020243161255627e-05 2.0619336126877163e-03 -1.3783789407439078e-02  1.1812775233552476e-04 1.8920469602153127e-03 -1.2751191381635668e-02  6.9640572381661752e-05 1.7377985134381119e-03 -1.1736606886865496e-02  7.4551233492001231e-05 1.6065306615665673e-03 -1.1381273611381797e-02  1.6466674153084053e-04 1.3102986596258974e-03 -9.3218578997358754e-03  4.2165516371722738e-05 9.9482093489522633e-04 -6.6253683097422965e-03  -1.2567794476213518e-04 9.9437993021817147e-04 -6.9688513885722975e-03  -1.0310547433052311e-04 1.1212627193873334e-03 -8.1278256894620621e-03  2.5372549576791333e-05 1.2211234167399771e-03 -8.6975115780519030e-03  1.8582737655338275e-04 1.4190723578594996e-03 -8.7454359734027588e-03  0.0000000000000000e+00 0.0000000000000000e+00 0.0000000000000000e+00  -1.0516519825501708e-03 1.6876475313715839e-03 -7.5060943413294444e-03  -9.6878873040601664e-04 3.0916603161074852e-03 -1.5852487182654005e-02  -1.6344071085685262e-04 3.5797492762222154e-03 -1.9539295172972020e-02  5.8782435020650749e-04 3.0844566332532829e-03 -1.6331967464388641e-02  5.6710827638202055e-04 2.3805218439462723e-03 -1.1118714821371596e-02  1.3292093129333848e-04 2.1609128001741176e-03 -1.0361925227549697e-02  1.9818226876181645e-05 2.1444655641156300e-03 -1.1005834409898784e-02  9.1154872903617500e-05 2.0127515495813445e-03 -1.0196405796761133e-02  1.0466636075193508e-04 1.8609995524049776e-03 -9.5123916774087717e-03  1.2038122112949168e-04 1.7105298610477267e-03 -8.8496232819219155e-03  8.1629994483873398e-05 1.5732450015300801e-03 -8.1450292282511990e-03  7.5453265461832323e-05 1.4535871586597378e-03 -8.0618583588353207e-03  1.7632004213337954e-04 1.1973619100469051e-03 -6.6925045976086121e-03  8.3554358880444940e-05 9.1765788883604502e-04 -4.6062627890616284e-03  -1.1179585477479457e-04 9.0083454812389316e-04 -4.8658058039548558e-03  -1.1610998671340703e-04 1.0063054519224386e-03 -5.7935192292311232e-03  -1.9088830975352768e-05 1.0906117899383565e-03 -6.2514044908120016e-03  1.6973813984635174e-04 1.2954404737409780e-03 -6.4472100220279291e-03  0.0000000000000000e+00 0.0000000000000000e+00 0.0000000000000000e+00  -6.9823884945831186e-04 1.0345282843793587e-03 -3.0753398903284671e-03  -6.5118761007814145e-04 1.9058792827819180e-03 -7.0727460578325690e-03  -1.3494435345185544e-04 2.2442638879870808e-03 -9.0389653921204415e-03  3.6474319958767739e-04 1.9606152389403204e-03 -7.5838603115845416e-03  3.7794761376830095e-04 1.5195731039160162e-03 -4.9390542954710235e-03  9.0525953924054837e-05 1.3703406623756225e-03 -4.6027609275615155e-03  3.8096225196393938e-06 1.3567156200571687e-03 -5.0720121809212284e-03  5.5849324992688150e-05 1.2763118216022611e-03 -4.7352592371035663e-03  6.4927526831671614e-05 1.1825942370017753e-03 -4.4599602740332551e-03  7.2429346240778609e-05 1.0900964001500013e-03 -4.2197010850855464e-03  5.2460393414003756e-05 1.0058595876398829e-03 -3.9256103908774358e-03  4.4238284551515616e-05 9.3313071158859513e-04 -4.0101300395439859e-03  1.1112805757346039e-04 7.7539449258783055e-04 -3.4581682290301006e-03  6.6192479802519973e-05 5.9790638042930497e-04 -2.4125151051031632e-03  -6.8810011808418989e-05 5.8189376315228008e-04 -2.5715561437028669e-03  -8.4850766894404062e-05 6.4822726404863433e-04 -3.1011075840884947e-03  -4.0526866913690056e-05 6.9698719745773542e-04 -3.3703030952697325e-03  1.6867281446493064e-04 8.6669652127143826e-04 -3.5850588477526210e-03  0.0000000000000000e+00 0.0000000000000000e+00 0.0000000000000000e+00  -2.5370384011849300e-06 4.6604963358854646e-07 -8.0971916667496684e-06  -4.8643108215074036e-06 1.5351607253409815e-06 -3.0131533248184033e-05  -6.8168525190337773e-06 3.1325818872399148e-06 -6.4138695334557512e-05  -8.4552048365720066e-06 5.1691782261779286e-06 -1.0818379331378447e-04  -9.8281134820933155e-06 7.5691074952662875e-06 -1.6065038222813486e-04  -1.0969013491362480e-05 1.0268869337045287e-05 -2.2016160482211486e-04  -1.1901301313015066e-05 1.3213481277474828e-05 -2.8546327566567888e-04  -1.2649858132366732e-05 1.6354000842441137e-05 -3.5543284586213888e-04  -1.3240449341293759e-05 1.9648216965203327e-05 -4.2910738628530851e-04  -1.3696632581457221e-05 2.3060698818378516e-05 -5.0566324107697929e-04  -1.4040130110518267e-05 2.6562047663749128e-05 -5.8440555512990035e-04  -1.4290648804325883e-05 3.0128363291850826e-05 -6.6475839962176699e-04  -1.4467116978767473e-05 3.3740607182351244e-05 -7.4625108789747486e-04  -1.4587334200346699e-05 3.7384551984408634e-05 -8.2852782167685711e-04  -1.4663699932841626e-05 4.1050393129529501e-05 -9.1132516572962983e-04  -1.4704933602055956e-05 4.4730479839661054e-05 -9.9442097017586628e-04  -1.4721253092165108e-05 4.8417775177938529e-05 -1.0776425779909838e-03  -1.4724388694645084e-05 5.2107609340229933e-05 -1.1608855724533659e-03  0.0000000000000000e+00 0.0000000000000000e+00 0.0000000000000000e+00  -2.5924687261975459e-06 6.7337841694808581e-07 -7.9618017592614383e-06  -5.1070526088851298e-06 1.6943895924862246e-06 -2.9979566968307073e-05  -7.2000400626202013e-06 3.2649985491639091e-06 -6.3970294340700589e-05  -8.9551165252524816e-06 5.2798943865419832e-06 -1.0800039062029897e-04  -1.0424848114705520e-05 7.6615246356985590e-06 -1.6045464062202689e-04  -1.1646316876801621e-05 1.0344869821867759e-05 -2.1995574081252063e-04  -1.2644728344525020e-05 1.3274742597468984e-05 -2.8524858462740979e-04  -1.3446345193889498e-05 1.6402511544016337e-05 -3.5521037869460438e-04  -1.4078817042544113e-05 1.9685866238370448e-05 -4.2887812546801515e-04  -1.4567453003529087e-05 2.3089199871007513e-05 -5.0542796609258302e-04  -1.4935548371595677e-05 2.6582968735687924e-05 -5.8416489542770244e-04  -1.5204246022314017e-05 3.0143147426057601e-05 -6.6451285031076854e-04  -1.5393636511588970e-05 3.3750709282974558e-05 -7.4600105599612542e-04  -1.5522907604039052e-05 3.7391138975057809e-05 -8.2827364591949067e-04  -1.5605749537202023e-05 4.1054105892385569e-05 -9.1106717497502080e-04  -1.5651188961931680e-05 4.4731953562742753e-05 -9.9415967284480363e-04  -1.5669633425880573e-05 4.8417856129612808e-05 -1.0773788155086868e-03  -1.5673574492794699e-05 5.2107025437747992e-05 -1.1606205538973455e-03  0.0000000000000000e+00 0.0000000000000000e+00 0.0000000000000000e+00  -7.6429723198254726e-04 -9.7670925652484984e-04 -4.1866690278655706e-03  -6.2837973118987881e-04 -1.8017116051555230e-03 -7.9722959353274794e-03  -7.7146404728021371e-05 -2.1890984846446473e-03 -9.1740728380276665e-03  3.9362489602472742e-04 -1.9682980274719200e-03 -7.1618273848702242e-03  3.3553241447362224e-04 -1.5242366184504547e-03 -4.7380681369913668e-03  4.6912366150167437e-05 -1.3473032818747119e-03 -4.8015401696790633e-03  7.3872365830039597e-07 -1.3287139971135651e-03 -5.2027483301554092e-03  5.8743976961236651e-05 -1.2500974830614337e-03 -4.7920692366948551e-03  6.6325110446730645e-05 -1.1538447341141614e-03 -4.5473201777583017e-03  7.0627178817184313e-05 -1.0634591248566913e-03 -4.2846252740565095e-03  3.8952308370232950e-05 -9.7143684762947778e-04 -4.0017876620646676e-03  4.2388671633137237e-05 -8.9159927086850316e-04 -4.0627803631180601e-03  1.3000906440234361e-04 -7.4578227362388880e-04 -3.4940737078625922e-03  9.7504660312623407e-05 -5.5439590892770823e-04 -2.4681898419593169e-03  -2.5834981334043476e-05 -4.8529041075144803e-04 -2.5307843360366979e-03  -5.0938865397916426e-05 -4.9194378970697722e-04 -2.8559837720503992e-03  -2.2539059531363182e-05 -5.1903452326133187e-04 -2.9746622893794344e-03  9.6620654575772037e-05 -6.0924949453709353e-04 -2.8791693093415224e-03  0.0000000000000000e+00 0.0000000000000000e+00 0.0000000000000000e+00  -1.1151561580574039e-03 -1.5483348834573636e-03 -8.7101721369743836e-03  -9.7487725940333299e-04 -3.0873430075147338e-03 -1.6842246792845114e-02  -1.3305917335238980e-04 -3.8762801373820608e-03 -1.9822478525693386e-02  6.1287192809917311e-04 -3.5834391024664081e-03 -1.6199338898964716e-02  5.4571676615788834e-04 -2.8127351414601975e-03 -1.1175979435908820e-02  7.7737221516686129e-05 -2.4556796694419755e-03 -1.0743983539518371e-02  -6.5088915114648812e-06 -2.4071470333998711e-03 -1.1351255956784682e-02  9.4935753207061403e-05 -2.2769402692241585e-03 -1.0474598459893998e-02  1.0778096088230470e-04 -2.1082515260407698e-03 -9.8049071987159914e-03  1.1524172252046257e-04 -1.9484103991735109e-03 -9.1466819080253895e-03  6.7452578079010202e-05 