<?xml version="1.0"?>
<VTKFile type="UnstructuredGrid"  version="0.1"  >
<UnstructuredGrid>
<Piece  NumberOfPoints="760" NumberOfCells="3024">
<Points>
<DataArray  type="Float64"  NumberOfComponents="3"  format="ascii">0 0 0  0.05555555555555555 0 0  0.1111111111111111 0 0  0.1666666666666667 0 0  0.2222222222222222 0 0  0.2777777777777778 0 0  0.3333333333333333 0 0  0.3888888888888889 0 0  0.4444444444444444 0 0  0.5 0 0  0.5555555555555556 0 0  0.6111111111111112 0 0  0.6666666666666666 0 0  0.7222222222222222 0 0  0.7777777777777778 0 0  0.8333333333333334 0 0  0.8888888888888888 0 0  0.9444444444444444 0 0  1 0 0  0 0.01428571428571429 0  0.05555555555555555 0.01428571428571429 0  0.1111111111111111 0.01428571428571429 0  0.1666666666666667 0.01428571428571429 0  0.2222222222222222 0.01428571428571429 0  0.2777777777777778 0.01428571428571429 0  0.3333333333333333 0.01428571428571429 0  0.3888888888888889 0.01428571428571429 0  0.4444444444444444 0.01428571428571429 0  0.5 0.01428571428571429 0  0.5555555555555556 0.01428571428571429 0  0.6111111111111112 0.01428571428571429 0  0.6666666666666666 0.01428571428571429 0  0.7222222222222222 0.01428571428571429 0  0.7777777777777778 0.01428571428571429 0  0.8333333333333334 0.01428571428571429 0  0.8888888888888888 0.01428571428571429 0  0.9444444444444444 0.01428571428571429 0  1 0.01428571428571429 0  0 0.02857142857142857 0  0.05555555555555555 0.02857142857142857 0  0.1111111111111111 0.02857142857142857 0  0.1666666666666667 0.02857142857142857 0  0.2222222222222222 0.02857142857142857 0  0.2777777777777778 0.02857142857142857 0  0.3333333333333333 0.02857142857142857 0  0.3888888888888889 0.02857142857142857 0  0.4444444444444444 0.02857142857142857 0  0.5 0.02857142857142857 0  0.5555555555555556 0.02857142857142857 0  0.6111111111111112 0.02857142857142857 0  0.6666666666666666 0.02857142857142857 0  0.7222222222222222 0.02857142857142857 0  0.7777777777777778 0.02857142857142857 0  0.8333333333333334 0.02857142857142857 0  0.8888888888888888 0.02857142857142857 0  0.9444444444444444 0.02857142857142857 0  1 0.02857142857142857 0  0 0.04285714285714286 0  0.05555555555555555 0.04285714285714286 0  0.1111111111111111 0.04285714285714286 0  0.1666666666666667 0.04285714285714286 0  0.2222222222222222 0.04285714285714286 0  0.2777777777777778 0.04285714285714286 0  0.3333333333333333 0.04285714285714286 0  0.3888888888888889 0.04285714285714286 0  0.4444444444444444 0.04285714285714286 0  0.5 0.04285714285714286 0  0.5555555555555556 0.04285714285714286 0  0.6111111111111112 0.04285714285714286 0  0.6666666666666666 0.04285714285714286 0  0.7222222222222222 0.04285714285714286 0  0.7777777777777778 0.04285714285714286 0  0.8333333333333334 0.04285714285714286 0  0.8888888888888888 0.04285714285714286 0  0.9444444444444444 0.04285714285714286 0  1 0.04285714285714286 0  0 0.05714285714285715 0  0.05555555555555555 0.05714285714285715 0  0.1111111111111111 0.05714285714285715 0  0.1666666666666667 0.05714285714285715 0  0.2222222222222222 0.05714285714285715 0  0.2777777777777778 0.05714285714285715 0  0.3333333333333333 0.05714285714285715 0  0.3888888888888889 0.05714285714285715 0  0.4444444444444444 0.05714285714285715 0  0.5 0.05714285714285715 0  0.5555555555555556 0.05714285714285715 0  0.6111111111111112 0.05714285714285715 0  0.6666666666666666 0.05714285714285715 0  0.7222222222222222 0.05714285714285715 0  0.7777777777777778 0.05714285714285715 0  0.8333333333333334 0.05714285714285715 0  0.8888888888888888 0.05714285714285715 0  0.9444444444444444 0.05714285714285715 0  1 0.05714285714285715 0  0 0.07142857142857142 0  0.05555555555555555 0.07142857142857142 0  0.1111111111111111 0.07142857142857142 0  0.1666666666666667 0.07142857142857142 0  0.2222222222222222 0.07142857142857142 0  0.2777777777777778 0.07142857142857142 0  0.3333333333333333 0.07142857142857142 0  0.3888888888888889 0.07142857142857142 0  0.4444444444444444 0.07142857142857142 0  0.5 0.07142857142857142 0  0.5555555555555556 0.07142857142857142 0  0.6111111111111112 0.07142857142857142 0  0.6666666666666666 0.07142857142857142 0  0.7222222222222222 0.07142857142857142 0  0.7777777777777778 0.07142857142857142 0  0.8333333333333334 0.07142857142857142 0  0.8888888888888888 0.07142857142857142 0  0.9444444444444444 0.07142857142857142 0  1 0.07142857142857142 0  0 0.08571428571428573 0  0.05555555555555555 0.08571428571428573 0  0.1111111111111111 0.08571428571428573 0  0.1666666666666667 0.08571428571428573 0  0.2222222222222222 0.08571428571428573 0  0.2777777777777778 0.08571428571428573 0  0.3333333333333333 0.08571428571428573 0  0.3888888888888889 0.08571428571428573 0  0.4444444444444444 0.08571428571428573 0  0.5 0.08571428571428573 0  0.5555555555555556 0.08571428571428573 0  0.6111111111111112 0.08571428571428573 0  0.6666666666666666 0.08571428571428573 0  0.7222222222222222 0.08571428571428573 0  0.7777777777777778 0.08571428571428573 0  0.8333333333333334 0.08571428571428573 0  0.8888888888888888 0.08571428571428573 0  0.9444444444444444 0.08571428571428573 0  1 0.08571428571428573 0  0 0.1 0  0.05555555555555555 0.1 0  0.1111111111111111 0.1 0  0.1666666666666667 0.1 0  0.2222222222222222 0.1 0  0.2777777777777778 0.1 0  0.3333333333333333 0.1 0  0.3888888888888889 0.1 0  0.4444444444444444 0.1 0  0.5 0.1 0  0.5555555555555556 0.1 0  0.6111111111111112 0.1 0  0.6666666666666666 0.1 0  0.7222222222222222 0.1 0  0.7777777777777778 0.1 0  0.8333333333333334 0.1 0  0.8888888888888888 0.1 0  0.9444444444444444 0.1 0  1 0.1 0  0 0 0.01  0.05555555555555555 0 0.01  0.1111111111111111 0 0.01  0.1666666666666667 0 0.01  0.2222222222222222 0 0.01  0.2777777777777778 0 0.01  0.3333333333333333 0 0.01  0.3888888888888889 0 0.01  0.4444444444444444 0 0.01  0.5 0 0.01  0.5555555555555556 0 0.01  0.6111111111111112 0 0.01  0.6666666666666666 0 0.01  0.7222222222222222 0 0.01  0.7777777777777778 0 0.01  0.8333333333333334 0 0.01  0.8888888888888888 0 0.01  0.9444444444444444 0 0.01  1 0 0.01  0 0.01428571428571429 0.01  0.05555555555555555 0.01428571428571429 0.01  0.1111111111111111 0.01428571428571429 0.01  0.1666666666666667 0.01428571428571429 0.01  0.2222222222222222 0.01428571428571429 0.01  0.2777777777777778 0.01428571428571429 0.01  0.3333333333333333 0.01428571428571429 0.01  0.3888888888888889 0.01428571428571429 0.01  0.4444444444444444 0.01428571428571429 0.01  0.5 0.01428571428571429 0.01  0.5555555555555556 0.01428571428571429 0.01  0.6111111111111112 0.01428571428571429 0.01  0.6666666666666666 0.01428571428571429 0.01  0.7222222222222222 0.01428571428571429 0.01  0.7777777777777778 0.01428571428571429 0.01  0.8333333333333334 0.01428571428571429 0.01  0.8888888888888888 0.01428571428571429 0.01  0.9444444444444444 0.01428571428571429 0.01  1 0.01428571428571429 0.01  0 0.02857142857142857 0.01  0.05555555555555555 0.02857142857142857 0.01  0.1111111111111111 0.02857142857142857 0.01  0.1666666666666667 0.02857142857142857 0.01  0.2222222222222222 0.02857142857142857 0.01  0.2777777777777778 0.02857142857142857 0.01  0.3333333333333333 0.02857142857142857 0.01  0.3888888888888889 0.02857142857142857 0.01  0.4444444444444444 0.02857142857142857 0.01  0.5 0.02857142857142857 0.01  0.5555555555555556 0.02857142857142857 0.01  0.6111111111111112 0.02857142857142857 0.01  0.6666666666666666 0.02857142857142857 0.01  0.7222222222222222 0.02857142857142857 0.01  0.7777777777777778 0.02857142857142857 0.01  0.8333333333333334 0.02857142857142857 0.01  0.8888888888888888 0.02857142857142857 0.01  0.9444444444444444 0.02857142857142857 0.01  1 0.02857142857142857 0.01  0 0.04285714285714286 0.01  0.05555555555555555 0.04285714285714286 0.01  0.1111111111111111 0.04285714285714286 0.01  0.1666666666666667 0.04285714285714286 0.01  0.2222222222222222 0.04285714285714286 0.01  0.2777777777777778 0.04285714285714286 0.01  0.3333333333333333 0.04285714285714286 0.01  0.3888888888888889 0.04285714285714286 0.01  0.4444444444444444 0.04285714285714286 0.01  0.5 0.04285714285714286 0.01  0.5555555555555556 0.04285714285714286 0.01  0.6111111111111112 0.04285714285714286 0.01  0.6666666666666666 0.04285714285714286 0.01  0.7222222222222222 0.04285714285714286 0.01  0.7777777777777778 0.04285714285714286 0.01  0.8333333333333334 0.04285714285714286 0.01  0.8888888888888888 0.04285714285714286 0.01  0.9444444444444444 0.04285714285714286 0.01  1 0.04285714285714286 0.01  0 0.05714285714285715 0.01  0.05555555555555555 0.05714285714285715 0.01  0.1111111111111111 0.05714285714285715 0.01  0.1666666666666667 0.05714285714285715 0.01  0.2222222222222222 0.05714285714285715 0.01  0.2777777777777778 0.05714285714285715 0.01  0.3333333333333333 0.05714285714285715 0.01  0.3888888888888889 0.05714285714285715 0.01  0.4444444444444444 0.05714285714285715 0.01  0.5 0.05714285714285715 0.01  0.5555555555555556 0.05714285714285715 0.01  0.6111111111111112 0.05714285714285715 0.01  0.6666666666666666 0.05714285714285715 0.01  0.7222222222222222 0.05714285714285715 0.01  0.7777777777777778 0.05714285714285715 0.01  0.8333333333333334 0.05714285714285715 0.01  0.8888888888888888 0.05714285714285715 0.01  0.9444444444444444 0.05714285714285715 0.01  1 0.05714285714285715 0.01  0 0.07142857142857142 0.01  0.05555555555555555 0.07142857142857142 0.01  0.1111111111111111 0.07142857142857142 0.01  0.1666666666666667 0.07142857142857142 0.01  0.2222222222222222 0.07142857142857142 0.01  0.2777777777777778 0.07142857142857142 0.01  0.3333333333333333 0.07142857142857142 0.01  0.3888888888888889 0.07142857142857142 0.01  0.4444444444444444 0.07142857142857142 0.01  0.5 0.07142857142857142 0.01  0.5555555555555556 0.07142857142857142 0.01  0.6111111111111112 0.07142857142857142 0.01  0.6666666666666666 0.07142857142857142 0.01  0.7222222222222222 0.07142857142857142 0.01  0.7777777777777778 0.07142857142857142 0.01  0.8333333333333334 0.07142857142857142 0.01  0.8888888888888888 0.07142857142857142 0.01  
[...]
<PointData  Vectors="f_36"> 
<DataArray  type="Float64"  Name="f_36"  NumberOfComponents="3" format="ascii">0.0000000000000000e+00 0.0000000000000000e+00 0.0000000000000000e+00  -1.3279983670475485e-03 6.6961732318204217e-04 -2.7811680407646309e-04  -1.6810084082846256e-03 2.8552927031726583e-03 -9.4413691483635157e-03  -6.6440305663730513e-04 4.1660156612295073e-03 -1.3903866751242838e-02  -1.8895478500594574e-04 4.5822034318368041e-03 -1.4849233579876692e-02  -1.2855719555489022e-04 4.8000706564996090e-03 -1.5503604548368362e-02  -1.0214304321891358e-04 4.9389912910881200e-03 -1.5927745352176916e-02  -1.0584600178100602e-04 5.0666877370582307e-03 -1.6360278074932823e-02  -1.1139550463697877e-04 5.1991465510103415e-03 -1.6812465146681235e-02  -1.1742793433548845e-04 5.3372848430169716e-03 -1.7290341042807682e-02  -1.2244390157510791e-04 5.4815484260768320e-03 -1.7790581196742747e-02  -1.2711481390972391e-04 5.6310825126613673e-03 -1.8310696202807585e-02  -1.2887661287163464e-04 5.7855319173359251e-03 -1.8844252200689120e-02  -1.3815108189247209e-04 5.9510519744809818e-03 -1.9398547776467927e-02  -1.3856320693220688e-04 6.1286775359996751e-03 -1.9998452329991621e-02  -3.0430159005505547e-04 6.4333004337841868e-03 -2.0533985034788604e-02  -2.4890284354249644e-04 6.9801105577366098e-03 -2.2524569314385155e-02  1.0288235441297700e-03 6.9994101326592015e-03 -2.3775404018460844e-02  2.1147917714504569e-03 7.0123282780814875e-03 -1.9707209378112815e-02  0.0000000000000000e+00 0.0000000000000000e+00 0.0000000000000000e+00  -1.0212363885169844e-03 5.6492300784188366e-04 3.7561243801677405e-04  -1.6774761290643376e-03 2.5797190567800909e-03 -6.4779626455539387e-03  -7.2960573740988080e-04 3.8920680451465270e-03 -9.8660168145083584e-03  -1.8506745813950094e-04 4.3179906439499843e-03 -1.0413034431131439e-02  -1.2944012940664708e-04 4.5242999837374221e-03 -1.0860134505610422e-02  -1.0282686139928070e-04 4.6520459654231716e-03 -1.1171252230966990e-02  -1.0581795871514124e-04 4.7644855707464915e-03 -1.1493245576724072e-02  -1.1161907079300106e-04 4.8805883142105707e-03 -1.1834831168514980e-02  -1.1750404516512964e-04 5.0015771929861671e-03 -1.2196018635525222e-02  -1.2251822480516467e-04 5.1280491141530308e-03 -1.2574705498709792e-02  -1.2697548344017142e-04 5.2593129806863008e-03 -1.2967844921388595e-02  -1.2939834174308931e-04 5.3945211941811236e-03 -1.3371672758875710e-02  -1.3704315572897406e-04 5.5393519081302391e-03 -1.3782895543155723e-02  -1.3748835424669560e-04 5.6905649008114111e-03 -1.4233526599699266e-02  -2.6437644762910618e-04 5.9398630344874642e-03 -1.4525343071221790e-02  -3.0971250099257009e-04 6.4378415386354190e-03 -1.6014620494073845e-02  6.4694571432688118e-04 6.5177326742179402e-03 -1.7380306939686369e-02  1.9900514249550963e-03 6.7353300596234835e-03 -1.4390138659376817e-02  0.0000000000000000e+00 0.0000000000000000e+00 0.0000000000000000e+00  -5.3913076649120424e-04 2.8067401704959477e-04 5.5957780746450684e-04  -1.0589049103660608e-03 1.7176668941252364e-03 -2.8827347157347771e-03  -5.1069331696561966e-04 2.6974575107053356e-03 -4.7000890801953462e-03  -1.3212297989328116e-04 2.9932988399129614e-03 -4.9673128498075540e-03  -9.8003586944866763e-05 3.1211815468573960e-03 -5.2244533573930982e-03  -8.5535296685640519e-05 3.2001861440394473e-03 -5.4404714662246965e-03  -8.8594805149534839e-05 3.2683858438786505e-03 -5.6694121311242334e-03  -9.4158812452598161e-05 3.3386854506420251e-03 -5.9160877497768122e-03  -9.9105247531204254e-05 3.4120310609671578e-03 -6.1774241350695510e-03  -1.0337868006891427e-04 3.4887290931648915e-03 -6.4518394303018619e-03  -1.0687081662956436e-04 3.5684137786599593e-03 -6.7363544102084080e-03  -1.0934694496376046e-04 3.6500531076284429e-03 -7.0294025882355849e-03  -1.1366421290132106e-04 3.7372261353085284e-03 -7.3233499510617379e-03  -1.1435206742197841e-04 3.8243576831619337e-03 -7.6467178588894144e-03  -1.8036712226372759e-04 3.9574391175183814e-03 -7.8362583986516902e-03  -2.4310128721108214e-04 4.3020879079127125e-03 -8.6460235868525796e-03  2.0959815441274368e-04 4.3920901607628054e-03 -9.6701114876799211e-03  1.5317591051070636e-03 4.8726998565213871e-03 -8.2080210933602529e-03  0.0000000000000000e+00 0.0000000000000000e+00 0.0000000000000000e+00  -1.1215988638480359e-05 6.0590056251373842e-07 -1.6491267128992617e-05  -2.1367375967396918e-05 1.7557745661883484e-06 -6.2069407121936713e-05  -3.0465369626798231e-05 3.5236854914961261e-06 -1.3460211753334349e-04  -3.8520847219034312e-05 5.8520768081620272e-06 -2.3110502237723806e-04  -4.5587011040309382e-05 8.7032880528825918e-06 -3.4874165367404676e-04  -5.1719002970828008e-05 1.2035364255335915e-05 -4.8482413590682086e-04  -5.6973498459273584e-05 1.5803643886386704e-05 -6.3681870488634324e-04  -6.1409024975177397e-05 1.9961398439970922e-05 -8.0235046770276732e-04  -6.5086254444903142e-05 2.4460535483713729e-05 -9.7920935458803730e-04  -6.8068206799925911e-05 2.9252512686061147e-05 -1.1653567398978927e-03  -7.0420396193611006e-05 3.4289265230482193e-05 -1.3589325259466100e-03  -7.2210949168272599e-05 3.9524195558648203e-05 -1.5582626189844966e-03  -7.3510698886265977e-05 4.4913243918953065e-05 -1.7618667189108928e-03  -7.4393210498559952e-05 5.0415894954776294e-05 -1.9684663099160246e-03  -7.4934977165348133e-05 5.5996411760174430e-05 -2.1769926156739042e-03  -7.5214336457306936e-05 6.1625360312814002e-05 -2.3865961161598308e-03  -7.5314458803932730e-05 6.7278749489310772e-05 -2.5966459143152419e-03  -7.5330414945392403e-05 7.2941745282167108e-05 -2.8067588568722571e-03  0.0000000000000000e+00 0.0000000000000000e+00 0.0000000000000000e+00  -1.0416907191957428e-05 1.2094312125078040e-06 -1.6320694988794605e-05  -2.0827893981997244e-05 2.3017470946931189e-06 -6.1829058719311864e-05  -3.0180167835863895e-05 4.0103474607879865e-06 -1.3433589660363982e-04  -3.8472596820699951e-05 6.2800966961352916e-06 -2.3081563586267674e-04  -4.5759898998855529e-05 9.0758035711785079e-06 -3.4843161839115308e-04  -5.2096449486270230e-05 1.2355626906778999e-05 -4.8449565336186595e-04  -5.7538160343790658e-05 1.6075000540977430e-05 -6.3647391448147864e-04  -6.2142923155732930e-05 2.0187313684736018e-05 -8.0199141554702404e-04  -6.5970965725473812e-05 2.4644612410484164e-05 -9.7883798323779238e-04  -6.9085083425060676e-05 2.9398503712441490e-05 -1.1649748682816211e-03  -7.1550801012795580e-05 3.4401080525376214e-05 -1.3585418322227571e-03  -7.3436510343811935e-05 3.9605908716550681e-05 -1.5578646194974826e-03  -7.4813572202504485e-05 4.4969093582217377e-05 -1.7614627524701145e-03  -7.5756358534138885e-05 5.0450294796860622e-05 -1.9680575004909742e-03  -7.6342512229790358e-05 5.6013889220545600e-05 -2.1765798450598195e-03  -7.6651859447336861e-05 6.1630496422239217e-05 -2.3861799827054092e-03  -7.6768292405370392e-05 6.7276941988814558e-05 -2.5962265167658477e-03  -7.6788276898525360e-05 7.2938010334978586e-05 -2.8063359229142915e-03  0.0000000000000000e+00 0.0000000000000000e+00 0.0000000000000000e+00  -7.3592501262545169e-04 -3.3120085697742248e-04 7.9054368209512541e-05  -9.7492151326976915e-04 -1.8176266718737105e-03 -3.8770668191751780e-03  -4.0325944047107107e-04 -3.0325614256559354e-03 -5.2481154865863149e-03  -1.3152034249002439e-04 -3.4272558538741369e-03 -5.4345216331685084e-03  -9.8125138562963824e-05 -3.5513699901252608e-03 -5.6908030640378448e-03  -8.9925628946885923e-05 -3.6203427888780318e-03 -5.8927858287717077e-03  -9.6516721177328083e-05 -3.6752486322914400e-03 -6.1226783990133557e-03  -1.0294303889985276e-04 -3.7296030340123491e-03 -6.3683511439807054e-03  -1.0889273923060674e-04 -3.7862769008103446e-03 -6.6303230844310408e-03  -1.1369113703147168e-04 -3.8453540055249404e-03 -6.9050385713437766e-03  -1.1774594953544404e-04 -3.9066355097325447e-03 -7.1906984652356839e-03  -1.1994590989411176e-04 -3.9703003875786839e-03 -7.4831617913735200e-03  -1.2621860700480597e-04 -4.0376831426202240e-03 -7.7841143928650599e-03  -1.2583594526280738e-04 -4.1104367537514210e-03 -8.1039972954126856e-03  -1.9754269644798141e-04 -4.2218230069549084e-03 -8.3536343015687808e-03  -2.3303106510388742e-04 -4.5903726732972267e-03 -9.1235219920696217e-03  2.7637949609723587e-04 -5.0158976009888273e-03 -9.8455234784231259e-03  1.0609075129796614e-03 -5.3240258968959729e-03 -8.3552312329557617e-03  0.0000000000000000e+00 0.0000000000000000e+00 0.0000000000000000e+00  -1.1186276946547223e-03 -3.3671839499862442e-04 -2.5662950073199875e-04  -1.6373330042219743e-03 -2.2565380997561332e-03 -7.3327342273897802e-03  -6.5935970251508125e-04 -4.0524701076414598e-03 -1.0337748106642545e-02  -1.7413271464789684e-04 -4.7358205852368199e-03 -1.0821651501558406e-02  -1.3389492139432611e-04 -4.9548136587714651e-03 -1.1266041552000583e-02  -1.1497892590857249e-04 -5.0700103721716943e-03 -1.1569763371064719e-02  -1.2338535901950699e-04 -5.1587927509257605e-03 -1.1897547320996240e-02  -1.3135173640949874e-04 -5.2448962140000874e-03 -1.2243971026364804e-02  -1.3900074672886883e-04 -5.3345475370760367e-03 -1.2612170117049175e-02  -1.4517404685970687e-04 -5.4282308232750905e-03 -1.2998490354534023e-02  -1.5048731895193689e-04 -5.5256490180155072e-03 -1.3400185209094360e-02  -1.5325598631288950e-04 -5.6273725262392261e-03 -1.3813599850989259e-02  -1.6233876423063636e-04 -5.7343752847796728e-03 -1.4237874197138451e-02  -1.6154776344344911e-04 -5.8499030501179931e-03 -1.4705245004182219e-02  -2.6076586427201722e-04 -6.0192077545306606e-03 -1.5065997509610997e-02  -3.1423793829982990e-04 -6.5898887081142186e-03 -1.6467215471351007e-02  5.2336717206999861e-04 -7.4224508086991846e-03 -1.7955790388648807e-02  1.4908338247547196e-03 -8.2033310146918757e-03 -1.4894779052601016e-02  0.0000000000000000e+00 0.0000000000000000e+00 0.0000000000000000e+00  -9.9808863799059010e-04 -2.4492855655132960e-04 -4.9836691812933458e-04  -1.8331190846069645e-03 -2.2125147273717909e-03 -9.4419781445249269e-03  -7.4415690739176258e-04 -4.1687007815266750e-03 -1.3982268512833154e-02  -1.5511808898747783e-04 -4.9805849711944744e-03 -1.5001663327466230e-02  -1.3894889699195121e-04 -5.2564230717261611e-03 -1.5676045713057824e-02  -1.1957298348309459e-04 -5.3943333328106404e-03 -1.6104281316062598e-02  -1.2908006063229568e-04 -5.4963176175768669e-03 -1.6532874644935535e-02  -1.3825036927599799e-04 -5.5932790620493956e-03 -1.6981617634418970e-02  -1.4647080775062043e-04 -5.6937867395645825e-03 -1.7456190494526826e-02  -1.5325106119065310e-04 -5.7988921657246405e-03 -1.7954693012333708e-02  -1.5887557173174105e-04 -5.9082388085758761e-03 -1.8472911079085937e-02  -1.6208182523257301e-04 -6.0227549911834296e-03 -1.9009395453063578e-02  -1.6999648281114908e-04 -6.1423071356377012e-03 -1.9557389926817985e-02  -1.6847593729110697e-04 -6.2732655675665390e-03 -2.0176710043845848e-02  -2.2658442501424192e-04 -6.4556747645634453e-03 -2.0716287097633852e-02  -2.9147245479519719e-04 -7.0790332613715522e-03 -2.2593096476807104e-02  5.9043648583450832e-04 -8.0691026907779642e-03 -2.4942378641675218e-02  1.7433607083661678e-03 -9.1964466348654107e-03 -2.1926042801539990e-02  0.0000000000000000e+00 0.0000000000000000e+00 0.0000000000000000e+00  -5.8808512079092188e-04 1.9118873806198250e-04 -1.4260717041788680e-04  -7.9522600456170302e-04 1.1256580722902379e-03 -9.2652710119220348e-03  -3.3288323138813458e-04 1.7641926637167332e-03 -1.3781279618430580e-02  -7.8587772301129093e-05 1.9426196299524097e-03 -1.4708174430034637e-02  -5.4116685694684038e-05 2.0388709374397416e-03 -1.5348516854204540e-02  -4.1194677174719605e-05 2.1077817626942515e-03 -1.5769755646112188e-02  -4.2143214061893407e-05 2.1683650947900120e-03 -1.6197408648543361e-02  -4.4400969978256185e-05 2.2328490153350478e-03 -1.6645582142149645e-02  -4.6884256236216050e-05 2.2997561906527761e-03 -1.7119137777282002e-02  -4.8885432037696448e-05 2.3697005105079777e-03 -1.7614967637565464e-02  -5.1176523463484729e-05 2.4421522021461891e-03 -1.8130546989780474e-02  -5.0862859840078819e-05 2.5164107216163736e-03 -1.8659384658745001e-02  -5.6941044259770297e-05 2.5962562085400588e-03 -1.9207582373257363e-02  -5.9674313481853165e-05 2.6778889183684254e-03 -1.9801775258951021e-02  -9.9232728472299614e-05 2.8007589680269407e-03 -2.0319474968346466e-02  -3.1805673788124319e-05 3.0866628217611578e-03 -2.2310432446439467e-02  6.8239128819917597e-04 3.2243193902272136e-03 -2.3621679993462801e-02  1.4031561869867380e-03 3.4816798457055079e-03 -1.9599296213035692e-02  0.0000000000000000e+00 0.0000000000000000e+00 0.0000000000000000e+00  -4.9105789601081647e-04 1.7596570798579603e-04 4.7240306398446300e-04  -8.2990034294188480e-04 9.6297071315257785e-04 -6.3600154791831533e-03  -3.8812514566579427e-04 1.5433792987134777e-03 -9.8026776419717493e-03  -8.4815388407746077e-05 1.7301232583047102e-03 -1.0315625400378090e-02  -5.8926874474561866e-05 1.8229373784531221e-03 -1.0738577150762870e-02  -4.6961943528313944e-05 1.8859106907039521e-03 -1.1045079525588595e-02  -4.7163443198228452e-05 1.9401400049637106e-03 -1.1361498720005952e-02  -4.9999721594106035e-05 1.9972286293769635e-03 -1.1698762282529734e-02  -5.2579181069324403e-05 2.0565432043713758e-03 -1.2055427424496914e-02  -5.4843226040205538e-05 2.1185577321372892e-03 -1.2429545348523707e-02  -5.7011657724931986e-05 2.1829361046112089e-03 -1.2817970442775588e-02  -5.7760704507666813e-05 2.2488018752958570e-03 -1.3217087595073019e-02  -6.1894253546185946e-05 2.3200500904745568e-03 -1.3622220305921867e-02  -6.4851259063168981e-05 2.3925372071093775e-03 -1.4067980286413642e-02  -1.0409394815420755e-04 2.4967097912068715e-03 -1.4341832924739919e-02  -9.2545681453468269e-05 2.7322428690288161e-03 -1.5821201101436810e-02  4.5908359375057637e-04 2.8377250702519216e-03 -1.7251652821234077e-02  1.3047838091342408e-03 3.1645932124260345e-03 -1.4339700322280139e-02  0.0000000000000000e+00 0.0000000000000000e+00 0.0000000000000000e+00  -2.7077495012130367e-04 1.0523105813901045e-04 6.4763858111182779e-04  -5.3977699317748833e-04 6.0114234490667780e-04 -2.7124922555441591e-03  -2.8572564343492678e-04 9.7281499719331383e-04 -4.5133858559216781e-03  -6.5858527748483415e-05 1.1010489077547204e-03 -4.7241584847308570e-03  -4.6219513176016105e-05 1.1614744543322773e-03 -4.9442950698208778e-03  -4.1706109704507126e-05 1.2005668633630561e-03 -5.1474655040870650e-03  -4.2062077621954937e-05 1.2342725121386887e-03 -5.3652404125319724e-03  -4.4959343069987059e-05 1.2693098153067543e-03 -5.6018005240953718e-03  -4.7211629319522037e-05 1.3058650769784139e-03 -5.8526559594561838e-03  -4.9257765694994693e-05 1.3441379585451940e-03 -6.1161956428623498e-03  -5.0924851253806765e-05 1.3840114359526048e-03 -6.3893983668536353e-03  -5.2096841085309741e-05 1.4247532213342063e-03 -6.6707885678938973e-03  -5.4210642627844836e-05 1.4688559577482293e-03 -6.9517301216109962e-03  -5.5747763076063708e-05 1.5135101163544779e-03 -7.2616967523001959e-03  -7.9431583520356673e-05 1.5733908286115279e-03 -7.4254563119798486e-03  -9.5773945308941862e-05 1.7146040633916966e-03 -8.2075041113331606e-03  1.7213583510122156e-04 1.7698121092712322e-03 -9.2619126726999380e-03  9.4977391188278955e-04 2.1003866752971555e-03 -7.8432639031617273e-03  0.0000000000000000e+00 0.0000000000000000e+00 0.0000000000000000e+00  -5.3212768622332012e-06 5.4319280255033952e-07 -1.6027163259483441e-05  -1.0444823839727056e-05 1.6766373818158555e-06 -6.1644196759057663e-05  -1.4997675734770907e-05 3.4146559184668372e-06 -1.3422072221169838e-04  -1.9027641650016278e-05 5.7172962212780750e-06 -2.3076754557514308e-04  -2.2563355290641390e-05 8.5449161570585861e-06 -3.4844595215258184e-04  -2.5632744354436891e-05 1.1855514589830666e-05 -4.8456789883007459e-04  -2.8264250158126045e-05 1.5604383692520171e-05 -6.3659951643583058e-04  -3.0487190301501667e-05 1.9744749346771553e-05 -8.0216582261617968e-04  -3.2331888005178782e-05 2.4228467762078494e-05 -9.7905664997436346e-04  -3.3829777293610415e-05 2.9006934407678013e-05 -1.1652332685051130e-03  -3.5013472878003355e-05 3.4032011024764064e-05 -1.3588354701817250e-03  -3.5916825563279976e-05 3.9257013782964143e-05 -1.5581890457303500e-03  -3.6574973684939844e-05 4.4637783191775803e-05 -1.7618135759160272e-03  -3.7024344592823558e-05 5.0133680668006452e-05 -1.9684304220609610e-03  -3.7302750513796838e-05 5.5708821795879010e-05 -2.1769706720296345e-03  -3.7449037221294291e-05 6.1333535067024966e-05 -2.3865846961776275e-03  -3.7503955043877793e-05 6.6983796493034185e-05 -2.5966413256224377e-03  -3.7513291414201646e-05 7.2644270133875139e-05 -2.8067557600495504e-03  0.0000000000000000e+00 0.0000000000000000e+00 0.0000000000000000e+00  -5.2352561831286233e-06 9.8314515795973255e-07 -1.5768184076831569e-05  -1.0585337963166243e-05 2.0375632630144712e-06 -6.1364031827291905e-05  -1.5313684959117173e-05 3.7335294532639333e-06 -1.3391994891915658e-04  -1.9508134433143867e-05 5.9979264067998050e-06 -2.3044702192041776e-04  -2.3196568181912069e-05 8.7896510667569104e-06 -3.4810766976357626e-04  -2.6406179717639917e-05 1.2066470846991941e-05 -4.8421393495561341e-04  -2.9164743226951087e-05 1.5783700339386206e-05 -6.3623192474369613e-04  -3.1501081474699128e-05 1.9894636332909623e-05 -8.0178656454438885e-04  -3.3445229937949028e-05 2.4351222023585428e-05 -9.7866757814760760e-04  -3.5028565588118824e-05 2.9104947473290120e-05 -1.1648361047090763e-03  -3.6283890145347343e-05 3.4107774523932332e-05 -1.3584317873720005e-03  -3.7245502480409976e-05 3.9313123254698665e-05 -1.5577802461377024e-03  -3.7949255706306368e-05 4.4676940353971384e-05 -1.7614008744888993e-03  -3.8432574841936564e-05 5.0158698724705085e-05 -1.9680148100787889e-03  -3.8734602213659018e-05 5.5722604030132409e-05 -2.1765528823888725e-03  -3.8895719509720507e-05 6.1339044726467081e-05 -2.3861651737459412e-03  -3.8958221316657487e-05 6.6984301227440541e-05 -2.5962201792189424e-03  -3.8970047641161193e-05 7.2642752359218044e-05 -2.8063334258869271e-03  0.0000000000000000e+00 0.0000000000000000e+00 0.0000000000000000e+00  -3.4269794961474967e-04 -7.9256076802320608e-05 1.6324930971420230e-04  -5.3266161773504706e-04 -5.5321454080894429e-04 -3.6026472059334088e-03  -2.4773855245079329e-04 -1.0025773868601268e-03 -4.7586962056648165e-03  -7.0360870572614646e-05 -1.1663969414588899e-03 -4.8024931307045103e-03  -5.1899227246741917e-05 -1.2073095149033994e-03 -5.0106150260704960e-03  -4.7782724266523231e-05 -1.2265899305671933e-03 -5.1948895025791661e-03  -5.1495204290505655e-05 -1.2413338906372665e-03 -5.4123470102161557e-03  -5.5109864732155710e-05 -1.2547426197727814e-03 -5.6470878788595826e-03  -5.8389128512466795e-05 -1.2686970807096285e-03 -5.8977894405159792e-03  -6.0957566373543862e-05 -1.2830749622107828e-03 -6.1607701846063791e-03  -6.3271232162825231e-05 -1.2978743409593168e-03 -6.4342127317995462e-03  -6.4002958640475203e-05 -1.3134285086350893e-03 -6.7140197272373527e-03  -6.7519465354266530e-05 -1.3296138194928036e-03 -7.0010870656847619e-03  -6.8829766458784571e-05 -1.3478089945228953e-03 -7.3073171956454320e-03  -8.6203964955838610e-05 -1.3795991131568578e-03 -7.5327709061384770e-03  -9.4637828230016480e-05 -1.5045694571667024e-03 -8.2401631914080786e-03  1.4658052311843504e-04 -1.7063466520471418e-03 -8.8954261163454260e-03  7.1716345859564577e-04 -1.9297021407976723e-03 -7.1789970404355459e-03  0.0000000000000000e+00 0.0000000000000000e+00 0.0000000000000000e+00  -5.0710398460869087e-04 -8.9052073578303769e-05 -1.7300726203768108e-04  -8.3470175168655109e-04 -8.7454964577461138e-04 -7.2056429431750814e-03  -3.6985265381169521e-04 -1.7080186944651225e-03 -1.0166323182984667e-02  -7.9371703685500545e-05 -2.0525426148944466e-03 -1.0543851521692451e-02  -6.6183625280841440e-05 -2.1493263601258662e-03 -1.0941334806591384e-02  -5.9364824681991759e-05 -2.1931190643479110e-03 -1.1231515663244986e-02  -6.4364030829918299e-05 -2.2254940491753580e-03 -1.1549479513409960e-02  -6.9111097238550812e-05 -2.2548661731051425e-03 -1.1888310774016492e-02  -7.3256015250211987e-05 -2.2853456819891017e-03 -1.2248670752043255e