<?xml version="1.0"?>
<VTKFile type="UnstructuredGrid"  version="0.1"  >
<UnstructuredGrid>
<Piece  NumberOfPoints="760" NumberOfCells="3024">
<Points>
<DataArray  type="Float64"  NumberOfComponents="3"  format="ascii">0 0 0  0.05555555555555555 0 0  0.1111111111111111 0 0  0.1666666666666667 0 0  0.2222222222222222 0 0  0.2777777777777778 0 0  0.3333333333333333 0 0  0.3888888888888889 0 0  0.4444444444444444 0 0  0.5 0 0  0.5555555555555556 0 0  0.6111111111111112 0 0  0.6666666666666666 0 0  0.7222222222222222 0 0  0.7777777777777778 0 0  0.8333333333333334 0 0  0.8888888888888888 0 0  0.9444444444444444 0 0  1 0 0  0 0.01428571428571429 0  0.05555555555555555 0.01428571428571429 0  0.1111111111111111 0.01428571428571429 0  0.1666666666666667 0.01428571428571429 0  0.2222222222222222 0.01428571428571429 0  0.2777777777777778 0.01428571428571429 0  0.3333333333333333 0.01428571428571429 0  0.3888888888888889 0.01428571428571429 0  0.4444444444444444 0.01428571428571429 0  0.5 0.01428571428571429 0  0.5555555555555556 0.01428571428571429 0  0.6111111111111112 0.01428571428571429 0  0.6666666666666666 0.01428571428571429 0  0.7222222222222222 0.01428571428571429 0  0.7777777777777778 0.01428571428571429 0  0.8333333333333334 0.01428571428571429 0  0.8888888888888888 0.01428571428571429 0  0.9444444444444444 0.01428571428571429 0  1 0.01428571428571429 0  0 0.02857142857142857 0  0.05555555555555555 0.02857142857142857 0  0.1111111111111111 0.02857142857142857 0  0.1666666666666667 0.02857142857142857 0  0.2222222222222222 0.02857142857142857 0  0.2777777777777778 0.02857142857142857 0  0.3333333333333333 0.02857142857142857 0  0.3888888888888889 0.02857142857142857 0  0.4444444444444444 0.02857142857142857 0  0.5 0.02857142857142857 0  0.5555555555555556 0.02857142857142857 0  0.6111111111111112 0.02857142857142857 0  0.6666666666666666 0.02857142857142857 0  0.7222222222222222 0.02857142857142857 0  0.7777777777777778 0.02857142857142857 0  0.8333333333333334 0.02857142857142857 0  0.8888888888888888 0.02857142857142857 0  0.9444444444444444 0.02857142857142857 0  1 0.02857142857142857 0  0 0.04285714285714286 0  0.05555555555555555 0.04285714285714286 0  0.1111111111111111 0.04285714285714286 0  0.1666666666666667 0.04285714285714286 0  0.2222222222222222 0.04285714285714286 0  0.2777777777777778 0.04285714285714286 0  0.3333333333333333 0.04285714285714286 0  0.3888888888888889 0.04285714285714286 0  0.4444444444444444 0.04285714285714286 0  0.5 0.04285714285714286 0  0.5555555555555556 0.04285714285714286 0  0.6111111111111112 0.04285714285714286 0  0.6666666666666666 0.04285714285714286 0  0.7222222222222222 0.04285714285714286 0  0.7777777777777778 0.04285714285714286 0  0.8333333333333334 0.04285714285714286 0  0.8888888888888888 0.04285714285714286 0  0.9444444444444444 0.04285714285714286 0  1 0.04285714285714286 0  0 0.05714285714285715 0  0.05555555555555555 0.05714285714285715 0  0.1111111111111111 0.05714285714285715 0  0.1666666666666667 0.05714285714285715 0  0.2222222222222222 0.05714285714285715 0  0.2777777777777778 0.05714285714285715 0  0.3333333333333333 0.05714285714285715 0  0.3888888888888889 0.05714285714285715 0  0.4444444444444444 0.05714285714285715 0  0.5 0.05714285714285715 0  0.5555555555555556 0.05714285714285715 0  0.6111111111111112 0.05714285714285715 0  0.6666666666666666 0.05714285714285715 0  0.7222222222222222 0.05714285714285715 0  0.7777777777777778 0.05714285714285715 0  0.8333333333333334 0.05714285714285715 0  0.8888888888888888 0.05714285714285715 0  0.9444444444444444 0.05714285714285715 0  1 0.05714285714285715 0  0 0.07142857142857142 0  0.05555555555555555 0.07142857142857142 0  0.1111111111111111 0.07142857142857142 0  0.1666666666666667 0.07142857142857142 0  0.2222222222222222 0.07142857142857142 0  0.2777777777777778 0.07142857142857142 0  0.3333333333333333 0.07142857142857142 0  0.3888888888888889 0.07142857142857142 0  0.4444444444444444 0.07142857142857142 0  0.5 0.07142857142857142 0  0.5555555555555556 0.07142857142857142 0  0.6111111111111112 0.07142857142857142 0  0.6666666666666666 0.07142857142857142 0  0.7222222222222222 0.07142857142857142 0  0.7777777777777778 0.07142857142857142 0  0.8333333333333334 0.07142857142857142 0  0.8888888888888888 0.07142857142857142 0  0.9444444444444444 0.07142857142857142 0  1 0.07142857142857142 0  0 0.08571428571428573 0  0.05555555555555555 0.08571428571428573 0  0.1111111111111111 0.08571428571428573 0  0.1666666666666667 0.08571428571428573 0  0.2222222222222222 0.08571428571428573 0  0.2777777777777778 0.08571428571428573 0  0.3333333333333333 0.08571428571428573 0  0.3888888888888889 0.08571428571428573 0  0.4444444444444444 0.08571428571428573 0  0.5 0.08571428571428573 0  0.5555555555555556 0.08571428571428573 0  0.6111111111111112 0.08571428571428573 0  0.6666666666666666 0.08571428571428573 0  0.7222222222222222 0.08571428571428573 0  0.7777777777777778 0.08571428571428573 0  0.8333333333333334 0.08571428571428573 0  0.8888888888888888 0.08571428571428573 0  0.9444444444444444 0.08571428571428573 0  1 0.08571428571428573 0  0 0.1 0  0.05555555555555555 0.1 0  0.1111111111111111 0.1 0  0.1666666666666667 0.1 0  0.2222222222222222 0.1 0  0.2777777777777778 0.1 0  0.3333333333333333 0.1 0  0.3888888888888889 0.1 0  0.4444444444444444 0.1 0  0.5 0.1 0  0.5555555555555556 0.1 0  0.6111111111111112 0.1 0  0.6666666666666666 0.1 0  0.7222222222222222 0.1 0  0.7777777777777778 0.1 0  0.8333333333333334 0.1 0  0.8888888888888888 0.1 0  0.9444444444444444 0.1 0  1 0.1 0  0 0 0.01  0.05555555555555555 0 0.01  0.1111111111111111 0 0.01  0.1666666666666667 0 0.01  0.2222222222222222 0 0.01  0.2777777777777778 0 0.01  0.3333333333333333 0 0.01  0.3888888888888889 0 0.01  0.4444444444444444 0 0.01  0.5 0 0.01  0.5555555555555556 0 0.01  0.6111111111111112 0 0.01  0.6666666666666666 0 0.01  0.7222222222222222 0 0.01  0.7777777777777778 0 0.01  0.8333333333333334 0 0.01  0.8888888888888888 0 0.01  0.9444444444444444 0 0.01  1 0 0.01  0 0.01428571428571429 0.01  0.05555555555555555 0.01428571428571429 0.01  0.1111111111111111 0.01428571428571429 0.01  0.1666666666666667 0.01428571428571429 0.01  0.2222222222222222 0.01428571428571429 0.01  0.2777777777777778 0.01428571428571429 0.01  0.3333333333333333 0.01428571428571429 0.01  0.3888888888888889 0.01428571428571429 0.01  0.4444444444444444 0.01428571428571429 0.01  0.5 0.01428571428571429 0.01  0.5555555555555556 0.01428571428571429 0.01  0.6111111111111112 0.01428571428571429 0.01  0.6666666666666666 0.01428571428571429 0.01  0.7222222222222222 0.01428571428571429 0.01  0.7777777777777778 0.01428571428571429 0.01  0.8333333333333334 0.01428571428571429 0.01  0.8888888888888888 0.01428571428571429 0.01  0.9444444444444444 0.01428571428571429 0.01  1 0.01428571428571429 0.01  0 0.02857142857142857 0.01  0.05555555555555555 0.02857142857142857 0.01  0.1111111111111111 0.02857142857142857 0.01  0.1666666666666667 0.02857142857142857 0.01  0.2222222222222222 0.02857142857142857 0.01  0.2777777777777778 0.02857142857142857 0.01  0.3333333333333333 0.02857142857142857 0.01  0.3888888888888889 0.02857142857142857 0.01  0.4444444444444444 0.02857142857142857 0.01  0.5 0.02857142857142857 0.01  0.5555555555555556 0.02857142857142857 0.01  0.6111111111111112 0.02857142857142857 0.01  0.6666666666666666 0.02857142857142857 0.01  0.7222222222222222 0.02857142857142857 0.01  0.7777777777777778 0.02857142857142857 0.01  0.8333333333333334 0.02857142857142857 0.01  0.8888888888888888 0.02857142857142857 0.01  0.9444444444444444 0.02857142857142857 0.01  1 0.02857142857142857 0.01  0 0.04285714285714286 0.01  0.05555555555555555 0.04285714285714286 0.01  0.1111111111111111 0.04285714285714286 0.01  0.1666666666666667 0.04285714285714286 0.01  0.2222222222222222 0.04285714285714286 0.01  0.2777777777777778 0.04285714285714286 0.01  0.3333333333333333 0.04285714285714286 0.01  0.3888888888888889 0.04285714285714286 0.01  0.4444444444444444 0.04285714285714286 0.01  0.5 0.04285714285714286 0.01  0.5555555555555556 0.04285714285714286 0.01  0.6111111111111112 0.04285714285714286 0.01  0.6666666666666666 0.04285714285714286 0.01  0.7222222222222222 0.04285714285714286 0.01  0.7777777777777778 0.04285714285714286 0.01  0.8333333333333334 0.04285714285714286 0.01  0.8888888888888888 0.04285714285714286 0.01  0.9444444444444444 0.04285714285714286 0.01  1 0.04285714285714286 0.01  0 0.05714285714285715 0.01  0.05555555555555555 0.05714285714285715 0.01  0.1111111111111111 0.05714285714285715 0.01  0.1666666666666667 0.05714285714285715 0.01  0.2222222222222222 0.05714285714285715 0.01  0.2777777777777778 0.05714285714285715 0.01  0.3333333333333333 0.05714285714285715 0.01  0.3888888888888889 0.05714285714285715 0.01  0.4444444444444444 0.05714285714285715 0.01  0.5 0.05714285714285715 0.01  0.5555555555555556 0.05714285714285715 0.01  0.6111111111111112 0.05714285714285715 0.01  0.6666666666666666 0.05714285714285715 0.01  0.7222222222222222 0.05714285714285715 0.01  0.7777777777777778 0.05714285714285715 0.01  0.8333333333333334 0.05714285714285715 0.01  0.8888888888888888 0.05714285714285715 0.01  0.9444444444444444 0.05714285714285715 0.01  1 0.05714285714285715 0.01  0 0.07142857142857142 0.01  0.05555555555555555 0.07142857142857142 0.01  0.1111111111111111 0.07142857142857142 0.01  0.1666666666666667 0.07142857142857142 0.01  0.2222222222222222 0.07142857142857142 0.01  0.2777777777777778 0.07142857142857142 0.01  0.3333333333333333 0.07142857142857142 0.01  0.3888888888888889 0.07142857142857142 0.01  0.4444444444444444 0.07142857142857142 0.01  0.5 0.07142857142857142 0.01  0.5555555555555556 0.07142857142857142 0.01  0.6111111111111112 0.07142857142857142 0.01  0.6666666666666666 0.07142857142857142 0.01  0.7222222222222222 0.07142857142857142 0.01  0.7777777777777778 0.07142857142857142 0.01  0.8333333333333334 0.07142857142857142 0.01  0.8888888888888888 0.07142857142857142 0.01  
[...]
<PointData  Vectors="f_36"> 
<DataArray  type="Float64"  Name="f_36"  NumberOfComponents="3" format="ascii">0.0000000000000000e+00 0.0000000000000000e+00 0.0000000000000000e+00  1.7057622993662121e-03 -3.2875625095723153e-03 7.2955898967093907e-03  2.2749381923343223e-03 -6.7061875032556548e-03 1.6760908175898519e-02  2.2586927781141119e-03 -1.0043040044405944e-02 2.6923852970943241e-02  1.5950149097917756e-03 -1.2556546120133519e-02 3.5518365810663352e-02  3.9049790951639315e-04 -1.3448434462901490e-02 3.9580942354878398e-02  -7.2630595396180799e-04 -1.2617692124239152e-02 3.7738082536538146e-02  -8.6214690335750202e-04 -1.1149816363198216e-02 3.2559429742218898e-02  -4.0353381367998113e-05 -1.0564344745154228e-02 3.0094783231369378e-02  2.9352219684869110e-04 -1.0881847586259140e-02 3.2246739866437973e-02  -2.1731774729391484e-04 -1.0751665254561379e-02 3.2802763286503459e-02  -3.6105525823868807e-04 -1.0114161466901890e-02 3.0470145031403759e-02  -2.2492137015488606e-05 -9.8694734528152681e-03 2.9735280187380291e-02  1.5098959565501235e-04 -1.0023365279107684e-02 3.0616729915675264e-02  9.7633510835263757e-05 -1.0210358437011130e-02 3.1569607953229883e-02  -1.8370516274695570e-05 -1.0294073731930330e-02 3.2191496404512909e-02  -1.6363185998220938e-04 -1.0285027078532603e-02 3.2510121906937438e-02  -5.5678156959191531e-04 -1.0300127184756635e-02 3.2726881650956371e-02  -1.1547051206976043e-03 -1.0871723058664805e-02 3.2254196306273672e-02  0.0000000000000000e+00 0.0000000000000000e+00 0.0000000000000000e+00  1.6290907098588281e-03 -2.7645699107813563e-03 4.4046777000348643e-03  2.1701375634936245e-03 -5.8625807962505239e-03 1.0794617938654272e-02  2.1808526340354887e-03 -8.9770951062302720e-03 1.7906668825643800e-02  1.5971337466615092e-03 -1.1414802049332734e-02 2.4164410408921800e-02  4.7695880160989590e-04 -1.2401260537569316e-02 2.7362779914021217e-02  -6.2592648423535696e-04 -1.1752162587248956e-02 2.6269574216257571e-02  -8.6710105156063597e-04 -1.0388762402775352e-02 2.2488459322266039e-02  -1.2860172546685840e-04 -9.7606242596846703e-03 2.0572888406270935e-02  3.1811365169312440e-04 -1.0035637519477367e-02 2.2375990521244334e-02  -1.3168498935638471e-04 -9.9714079204843674e-03 2.3085032728784368e-02  -3.6361765509292348e-04 -9.3891922321935675e-03 2.1390411482528047e-02  -4.3009848886930416e-05 -9.1244751365301413e-03 2.0868529700132237e-02  1.5901768263235403e-04 -9.2504804065809375e-03 2.1618871617046863e-02  1.1876620287722080e-04 -9.4306601441211547e-03 2.2413178748360501e-02  1.2786111508198106e-05 -9.5219087432004655e-03 2.2961407295481399e-02  -9.3203327633716634e-05 -9.5238744693386737e-03 2.3302721882828035e-02  -3.3006456276147688e-04 -9.5558884991382795e-03 2.3651515404433464e-02  -1.1574992903872626e-03 -1.0379069748216452e-02 2.3822417496619223e-02  0.0000000000000000e+00 0.0000000000000000e+00 0.0000000000000000e+00  9.9453985896740416e-04 -1.6446303657942109e-03 1.8169703018902832e-03  1.3492177538029042e-03 -3.6557145627156722e-03 4.8040745407405142e-03  1.3728334272492002e-03 -5.7773675833311493e-03 8.2503737065989756e-03  1.0344490950723701e-03 -7.5203684491855442e-03 1.1414268509862845e-02  3.5638977299576655e-04 -8.3164535455208053e-03 1.3186236395812253e-02  -3.3391062527631139e-04 -7.9531836005681967e-03 1.2850364133862868e-02  -5.1863646404130554e-04 -6.9936597024895901e-03 1.1062798438445763e-02  -8.0536105775375359e-05 -6.4968091487324353e-03 1.0128860135771146e-02  2.4129229414245572e-04 -6.7091887441711765e-03 1.1216308014117575e-02  -1.6250617382758657e-05 -6.7294115645504769e-03 1.1824334351493028e-02  -1.9316156370898871e-04 -6.3274430636757872e-03 1.1094595556345104e-02  1.6702020625032229e-06 -6.1206621979576440e-03 1.0943045983689833e-02  1.4164018008353411e-04 -6.2086067245693049e-03 1.1475388696660418e-02  1.2174361490269692e-04 -6.3474562671793806e-03 1.2028786985869613e-02  5.8865335899396344e-05 -6.4274565714878126e-03 1.2457547080637512e-02  5.7317848722888121e-06 -6.4491596320155123e-03 1.2788852824096584e-02  -4.2898431096203367e-05 -6.4618802873382892e-03 1.3156563655745886e-02  -1.1948875928293580e-03 -7.5724448881709398e-03 1.3722382040362805e-02  0.0000000000000000e+00 0.0000000000000000e+00 0.0000000000000000e+00  1.6094943597354636e-05 -1.4019929921316512e-06 2.4063551428265690e-05  3.0511089773701713e-05 -4.4594503355737828e-06 8.9932765429065554e-05  4.3273487620665604e-05 -9.1292532256445701e-06 1.9413089670115925e-04  5.4400161377291244e-05 -1.5194620884785695e-05 3.3192091477891113e-04  6.3996362387227555e-05 -2.2479347901012346e-05 4.9880494244628664e-04  7.2195708879486858e-05 -3.0817561518720315e-05 6.9064212222293110e-04  7.9134669201461516e-05 -4.0057536431205391e-05 9.0369782373132053e-04  8.4930872315268103e-05 -5.0061860951956253e-05 1.1346117955452878e-03  8.9682324090609912e-05 -6.0704887836762341e-05 1.3803131933434352e-03  9.3489426326642417e-05 -7.1870365379767459e-05 1.6379825610652204e-03  9.6463509254382426e-05 -8.3452512819887005e-05 1.9051076923499255e-03  9.8711549561409005e-05 -9.5358053800223232e-05 2.1795030434501126e-03  1.0033163614434602e-04 -1.0750554446282120e-04 2.4592628476064740e-03  1.0142214038482877e-04 -1.1982427435161826e-04 2.7427492187081341e-03  1.0208568122226556e-04 -1.3225496470884430e-04 3.0286077554811772e-03  1.0242785724355257e-04 -1.4475075680298686e-04 3.3157791430484581e-03  1.0255581054396456e-04 -1.5727810773052636e-04 3.6035050643438418e-03  1.0257883502514158e-04 -1.6981845058691825e-04 3.8913341228580395e-03  0.0000000000000000e+00 0.0000000000000000e+00 0.0000000000000000e+00  1.5213452776347636e-05 -2.2657747284948004e-06 2.3811975912400692e-05  3.0219900781515828e-05 -5.2312576347828495e-06 8.9568218598498603e-05  4.3529304552734129e-05 -9.8063005754034330e-06 1.9371858110300353e-04  5.5144224293253600e-05 -1.5778476783044703e-05 3.3146504271339502e-04  6.5171974584666268e-05 -2.2977966594828138e-05 4.9830929064990145e-04  7.3748246527343664e-05 -3.1240000980980771e-05 6.9011097825719646e-04  8.1014419044469704e-05 -4.0411702611607794e-05 9.0313623008392448e-04  8.7094299863503362e-05 -5.0353481685255807e-05 1.1340245878244581e-03  9.2089668095916486e-05 -6.0939034015791059e-05 1.3797040419277703e-03  9.6101608626820824e-05 -7.2053471506162858e-05 1.6373542041288221e-03  9.9243914077347110e-05 -8.3591405144876476e-05 1.9044628720328782e-03  1.0162825904727218e-04 -9.5458523288662395e-05 2.1788444117394083e-03  1.0335601750589942e-04 -1.0757309139845346e-04 2.4585925457690245e-03  1.0452788453869237e-04 -1.1986480036814726e-04 2.7420691289002340e-03  1.0524913452798948e-04 -1.3227467891211832e-04 3.0279196140370985e-03  1.0562846254914651e-04 -1.4475597679559698e-04 3.3150844209838205e-03  1.0577633535966340e-04 -1.5727513125179357e-04 3.6028046576193581e-03  1.0580542087141155e-04 -1.6981250184438284e-04 3.8906278486660079e-03  0.0000000000000000e+00 0.0000000000000000e+00 0.0000000000000000e+00  1.1114056984050675e-03 1.8368742331192206e-03 2.7524384785717775e-03  1.3802620036326486e-03 3.9959879400710925e-03 6.2587669990156296e-03  1.3358012976420407e-03 6.2810066305956820e-03 9.9710641084204531e-03  9.3107222579508588e-04 8.1778202443595488e-03 1.3086038048059519e-02  2.3408731928055117e-04 9.0994603614095153e-03 1.4492848868326200e-02  -3.8549190993622745e-04 8.8075531793716955e-03 1.3740991533482141e-02  -4.4326193713827277e-04 7.8092404811577051e-03 1.1864061247815550e-02  3.8861730405615127e-05 7.1594338225061142e-03 1.1173703595723694e-02  2.5581122620441321e-04 7.2909499921391700e-03 1.2368918365702640e-02  -2.6197579942973917e-05 7.3673308231734340e-03 1.2821603803901896e-02  -1.3590802553251261e-04 6.9585176603917630e-03 1.2040303385502670e-02  3.0831991043924927e-05 6.6274554293671495e-03 1.1907730169718408e-02  1.3751487100270614e-04 6.5830540273303095e-03 1.2338879432705030e-02  1.3380925124315882e-04 6.6383319600101355e-03 1.2798129981756745e-02  9.1038794212541034e-05 6.6789529793757204e-03 1.3176992045081616e-02  4.5988213539255865e-05 6.7138698991429675e-03 1.3514348991092722e-02  -9.0129719246704123e-05 6.8941758520859086e-03 1.3893640896602357e-02  -7.7206960050834640e-04 7.8408893493182672e-03 1.3774911176273150e-02  0.0000000000000000e+00 0.0000000000000000e+00 0.0000000000000000e+00  1.7467927041276232e-03 2.3812153751201245e-03 5.4519634640189177e-03  2.2027830496847900e-03 5.3848417011671222e-03 1.2322042676331905e-02  2.1365562493577579e-03 8.5871128165323531e-03 1.9572306904679555e-02  1.5023023025584929e-03 1.1309787720612292e-02 2.5641895872146242e-02  3.8392530282101525e-04 1.2738424127203675e-02 2.8410119366531188e-02  -6.4342490297875316e-04 1.2490471842172812e-02 2.6987636237458364e-02  -7.9515119740452720e-04 1.1174171877149352e-02 2.3262111139746820e-02  -3.3052428102183201e-05 1.0201226219636612e-02 2.1532544747191767e-02  3.8085077567130633e-04 1.0285414693443304e-02 2.3351849036462122e-02  -7.1956686382856815e-05 1.0408993903044922e-02 2.4032964769188460e-02  -3.0040515146349339e-04 9.8919781957129155e-03 2.2364255116083243e-02  -2.6204530512061471e-05 9.4113519236378278e-03 2.1750453851181888e-02  1.5883779459522582e-04 9.3118735474286736e-03 2.2237273423768231e-02  1.5264286209991116e-04 9.3753857272138204e-03 2.2830972913778166e-02  7.7806515234260252e-05 9.4353260710806127e-03 2.3293576522789742e-02  -1.8976736882506419e-05 9.4981777535914445e-03 2.3677503591730899e-02  -2.4099937422901967e-04 9.8051348803157422e-03 2.4148096086016181e-02  -7.1511792483125957e-04 1.1285273840696010e-02 2.3862617284999433e-02  0.0000000000000000e+00 0.0000000000000000e+00 0.0000000000000000e+00  1.7444424257134156e-03 2.3150260583951233e-03 7.5790711522735216e-03  2.2596284262109945e-03 5.4998373760168041e-03 1.7111990784859862e-02  2.2359685227673178e-03 8.9189448436587798e-03 2.7190960895827111e-02  1.6443338794904373e-03 1.1887268288955354e-02 3.5663966494507829e-02  5.1119197678787241e-04 1.3532264050353193e-02 3.9690254847178939e-02  -6.1259981186153256e-04 1.3394990317163435e-02 3.8042677419727597e-02  -8.9077512772718962e-04 1.2046228337876556e-02 3.3134116035555758e-02  -1.2517264818194903e-04 1.0963699425845116e-02 3.0512477973252385e-02  4.4865261079134904e-04 1.0995112440204643e-02 3.2469658439347848e-02  -4.5307466555468022e-06 1.1136492792462533e-02 3.3318399747777803e-02  -3.4985215008119275e-04 1.0614336738242880e-02 3.1146161386440770e-02  -5.7541452028238249e-05 1.0092200883072168e-02 3.0106938254004522e-02  1.6637152456990180e-04 9.9609231577512166e-03 3.0540862473402906e-02  1.6088679552803150e-04 1.0017731413899857e-02 3.1208169729876348e-02  7.1635288833075256e-05 1.0084568091751829e-02 3.1743192701509028e-02  -6.4702765349779800e-05 1.0166131885056367e-02 3.2190296906528477e-02  -4.0723930785129870e-04 1.0490540310421376e-02 3.2820940318205448e-02  -7.9985878277319367e-04 1.2177703525616469e-02 3.3047274498126028e-02  0.0000000000000000e+00 0.0000000000000000e+00 0.0000000000000000e+00  6.8234522002777801e-04 -1.2755190509824675e-03 7.0125753642034262e-03  9.9441903221909682e-04 -2.7735063092063010e-03 1.6413984124466957e-02  1.0227643549849273e-03 -4.2503710925049787e-03 2.6519540820949504e-02  7.7094693333497344e-04 -5.4038577676423062e-03 3.5115637730413506e-02  2.6667076823603316e-04 -5.8638975194854606e-03 3.9241950423548583e-02  -2.4947802549408853e-04 -5.5367417844356817e-03 3.7468834419932186e-02  -3.9043081857235030e-04 -4.8666506168709416e-03 3.2288739578825928e-02  -7.7843753604700988e-05 -4.5673099588981842e-03 2.9763977662358807e-02  1.1377974814314956e-04 -4.7270657742099686e-03 3.1917780119295143e-02  -8.3821043265992862e-05 -4.7169219834208055e-03 3.2534470204833417e-02  -1.8678982018256073e-04 -4.4341132264197509e-03 3.0206187147435313e-02  -5.9816607469374104e-05 -4.3085596337714676e-03 2.9441683495245383e-02  1.6620855096038641e-05 -4.3821518374856615e-03 3.0318599201215414e-02  -1.9136157504439820e-05 -4.4752391643039444e-03 3.1276835802044212e-02  -9.5198851275028135e-05 -4.5189524117339140e-03 3.1902883432924092e-02  -2.1367465954948416e-04 -4.5291359721077356e-03 3.2225463809806287e-02  -5.4031358580947824e-04 -4.6476555581488723e-03 3.2440541027729967e-02  -1.0436372358446813e-03 -5.2908678832629431e-03 3.1967126228884438e-02  0.0000000000000000e+00 0.0000000000000000e+00 0.0000000000000000e+00  7.3963457629887893e-04 -1.1213492184310350e-03 4.2018354049095617e-03  1.0415620621880538e-03 -2.4250099848294030e-03 1.0526828509289035e-02  1.0656566314915588e-03 -3.7438714929273853e-03 1.7576463858031278e-02  8.1149790609397264e-04 -4.7904677288364899e-03 2.3815233328225934e-02  2.9422698387305619e-04 -5.2351303328979993e-03 2.7044730361561797e-02  -2.4665136123575097e-04 -4.9829829672681956e-03 2.5994059189296440e-02  -4.1762044636839223e-04 -4.4063944167357086e-03 2.2207505026428695e-02  -1.0873051718366377e-04 -4.1259702479578518e-03 2.0243905859087599e-02  1.2948638011931612e-04 -4.2455502485770876e-03 2.2054925530639403e-02  -5.6664806780493152e-05 -4.2423797539186039e-03 2.2821867728542847e-02  -1.9346015490882994e-04 -4.0047371831780781e-03 2.1129602814665874e-02  -6.3212976491716714e-05 -3.8875753291268537e-03 2.0581651851658209e-02  3.2718289400413011e-05 -3.9443171651041839e-03 2.1333501806714363e-02  4.0165559722506266e-06 -4.0268120406033647e-03 2.2135481447310239e-02  -6.6520671849871249e-05 -4.0689773489687685e-03 2.2687109934129923e-02  -1.5093226952147518e-04 -4.0737223538315423e-03 2.3030472587866061e-02  -3.4763404685100895e-04 -4.1505664647246291e-03 2.3384941158310323e-02  -9.6928354445882810e-04 -4.8319759130307513e-03 2.3625970104071452e-02  0.0000000000000000e+00 0.0000000000000000e+00 0.0000000000000000e+00  4.9071118189098449e-04 -6.7722703518052578e-04 1.5747881687495410e-03  6.8789888470581636e-04 -1.4732480492234633e-03 4.3766153819618106e-03  7.0619248155040504e-04 -2.3046855509854464e-03 7.6388854445354603e-03  5.4581076374172208e-04 -2.9802515354796226e-03 1.0674730435605496e-02  2.1231911884620250e-04 -3.2878782391512879e-03 1.2407848990928847e-02  -1.4167612620005860e-04 -3.1554155502414531e-03 1.2105709600368577e-02  -2.6243845472452354e-04 -2.8017885209093356e-03 1.0357950111997151e-02  -6.8149837515458231e-05 -2.6181884761830158e-03 9.4251297567831543e-03  1.0361200257992054e-04 -2.6906962315952011e-03 1.0523120809664088e-02  -6.3864488028796473e-06 -2.6985395236814699e-03 1.1177050150086394e-02  -1.0786638611002061e-04 -2.5573675730949713e-03 1.0468248110371021e-02  -2.5352856432095995e-05 -2.4842249267797837e-03 1.0311849539921680e-02  4.5163274543302027e-05 -2.5203240983895014e-03 1.0847010910228149e-02  3.0578361906006747e-05 -2.5772005398057127e-03 1.1402004279112997e-02  -1.1847295158484998e-05 -2.6113862193909501e-03 1.1829803380377904e-02  -5.2366559253668521e-05 -2.6217564646818649e-03 1.2163343028406956e-02  -1.0566880036480959e-04 -2.6447292087518602e-03 1.2533290906903666e-02  -8.4739302880780499e-04 -3.2343484543960149e-03 1.3116719777779649e-02  0.0000000000000000e+00 0.0000000000000000e+00 0.0000000000000000e+00  7.5745997882285387e-06 -1.3037431472714809e-06 2.3395321988728214e-05  1.4804763280914597e-05 -4.3285996830351385e-06 8.9327121625231066e-05  2.1153176639060677e-05 -8.9464962912722186e-06 1.9359449430120701e-04  2.6689757547625881e-05 -1.4966115797919434e-05 3.3145348157004545e-04  3.1467510870667068e-05 -2.2209054083255991e-05 4.9840195740570353e-04  3.5551735988157916e-05 -3.0510269261678859e-05 6.9029806240578518e-04  3.9010033540388309e-05 -3.9718221730188607e-05 9.0340712137081179e-04  4.1901588896247939e-05 -4.9694714415257498e-05 1.1343695433798818e-03  4.4275459866784842e-05 -6.0313101693918426e-05 1.3801150762049342e-03  4.6180622779616426e-05 -7.1456985276866511e-05 1.6378241450958799e-03  4.7671574242875349e-05 -8.3020708574086248e-05 1.9049842585566466e-03  4.8801536332976616e-05 -9.4910566803293154e-05 2.1794100765377120e-03  4.9619160783162067e-05 -1.0704470601891919e-04 2.4591960990452306e-03  5.0172804580238182e-05 -1.1935236974493206e-04 2.7427044030458375e-03  5.0512892932900384e-05 -1.3177425679856755e-04 3.0285804373864035e-03  5.0691380265939505e-05 -1.4426333829681143e-04 3.3157647673509520e-03  5.0760855573488896e-05 -1.5678576422853866e-04 3.6034989377633792e-03  5.0773998762909836e-05 -1.6932180500159991e-04 3.8913295613418300e-03  0.0000000000000000e+00 0.0000000000000000e+00 0.0000000000000000e+00  7.6997447084148066e-06 -1.9346250460436286e-06 2.3009560902074979e-05  1.5465051459778880e-05 -4.8395267434434219e-06 8.8900268236892678e-05  2.2238021047937671e-05 -9.3911970677549287e-06 1.9312833706794122e-04  2.8150287811053981e-05 -1.5350510943041569e-05 3.3094973116381041e-04  3.3256576792374240e-05 -2.2538282885666372e-05 4.9786390021868050e-04  3.7625113091533066e-05 -3.0789815096875201e-05 6.8972974731886839e-04  4.1327241817160567e-05 -3.9953113313132987e-05 9.0281310571083237e-04  4.4426113938947955e-05 -4.9888924914771089e-05 1.1337540794957880e-03  4.6973924449982059e-05 -6.0470093267412540e-05 1.3794815013534285e-03  4.9021855121815544e-05 -7.1580717677988194e-05 1.6371751155868140e-03  5.0627126253862252e-05 -8.3115433271649982e-05 1.9043222658473690e-03  5.1846430416894215e-05 -9.4980116725642974e-05 2.1787373569457759e-03  5.2731514635425421e-05 -1.0709267787719880e-04 2.4585144994730174e-03  5.3333493855911527e-05 -1.1938251286339244e-04 2.7420155915048577e-03  5.3705719065721735e-05 -1.3179050692496927e-04 3.0278859246287339e-03  5.3903353615825981e-05 -1.4426971372195495e-04 3.3150657897641216e-03  5.3982407905661016e-05 -1.5678620775535389e-04 3.6027962455284193e-03  5.3999116043745918e-05 -1.6931953720962850e-04 3.8906240620678600e-03  0.0000000000000000e+00 0.0000000000000000e+00 0.0000000000000000e+00  5.4976792345657948e-04 6.5098684145806706e-04 2.4276231075587951e-03  7.1086826741670122e-04 1.3948781238167698e-03 5.5486783397282304e-03  7.0870536581206739e-04 2.1978422133214796e-03 8.8284442897849456e-03  5.2698336122010457e-04 2.8698463088062164e-03 1.1567423524923836e-02  1.8252752054990828e-04 3.2026077070471922e-03 1.2757726340012533e-02  -1.5440591213298669e-04 3.1082470899512112e-03 1.1995989665421685e-02  -2.3312425478193787e-04 2.7563017128488347e-03 1.0247945998406420e-02  -1.1314268974275528e-05 2.5114679393967018e-03 9.6750739838431452e-03  1.3762195960923814e-04 2.5381949814518617e-03 1.0901221050456242e-02  1.5649752110694835e-05 2.5580061076722425e-03 1.1360226486190476e-02  -6.8138280231813737e-05 2.4117575986351844e-03 1.0620458386753944e-02  4.0666383549636086e-06 2.2849503835972772e-03 1.0541797048669898e-02  6.3798826782878503e-05 2.2550649015158925e-03 1.0999027147687196e-02  6.0284582196748860e-05 2.2615886322275803e-03 1.1456238725717098e-02  2.6395135209252774e-05 2.2630689274671166e-03 1.1826208494732605e-02  -1.4950922087952945e-05 2.2652104141000734e-03 1.2151170661337524e-02  -8.2727579092551617e-05 2.3572683337663527e-03 1.2486072488205324e-02  -5.9634022290290447e-04 2.7744093158741595e-03 1.2016713671787162e-02  0.0000000000000000e+00 0.0000000000000000e+00 0.0000000000000000e+00  7.8635561091116614e-04 1.0342235916000816e-03 5.2482866892732969e-03  1.0582544988285759e-03 2.3695132622397865e-03 1.1991724776327692e-02  1.0561618557752023e-03 3.8109423240308181e-03 1.9063821304438629e-02  7.9072506493559915e-04 5.0529931875824856e-03 2.4981013795590833e-02  2.7441432788472090e-04 5.7233174739310553e-03 2.7659437978363059e-02  -2.4352472216201398e-04 5.6361839220345801e-03 2.6213477832658000e-02  -3.7996468328131829e-04 5.0476449585682643e-03 2.2500130906374552e-02  -4.6667553353186405e-05 4.5886182785795536e-03 2.0788790765435754e-02  1.9826413473444392e-04 4.6032947062012676e-03 2.2647898999848124e-02  1.0761547480283746e-05 4.6541540485497430e-03 2.3371675227748009e-02  -1.3419064140464688e-04 4.4235596076144098e-03 2.1707832210063935e-02  -2.3088642815510070e-05 4.1983007762764002e-03 2.1098243437441305e-02  7.0937906105388964e-05 4.1379182977303221e-03 2.1605733839417652e-02  6.2749130445135899e