<?xml version="1.0"?>
<VTKFile type="UnstructuredGrid"  version="0.1"  >
<UnstructuredGrid>
<Piece  NumberOfPoints="760" NumberOfCells="3024">
<Points>
<DataArray  type="Float64"  NumberOfComponents="3"  format="ascii">0 0 0  0.05555555555555555 0 0  0.1111111111111111 0 0  0.1666666666666667 0 0  0.2222222222222222 0 0  0.2777777777777778 0 0  0.3333333333333333 0 0  0.3888888888888889 0 0  0.4444444444444444 0 0  0.5 0 0  0.5555555555555556 0 0  0.6111111111111112 0 0  0.6666666666666666 0 0  0.7222222222222222 0 0  0.7777777777777778 0 0  0.8333333333333334 0 0  0.8888888888888888 0 0  0.9444444444444444 0 0  1 0 0  0 0.01428571428571429 0  0.05555555555555555 0.01428571428571429 0  0.1111111111111111 0.01428571428571429 0  0.1666666666666667 0.01428571428571429 0  0.2222222222222222 0.01428571428571429 0  0.2777777777777778 0.01428571428571429 0  0.3333333333333333 0.01428571428571429 0  0.3888888888888889 0.01428571428571429 0  0.4444444444444444 0.01428571428571429 0  0.5 0.01428571428571429 0  0.5555555555555556 0.01428571428571429 0  0.6111111111111112 0.01428571428571429 0  0.6666666666666666 0.01428571428571429 0  0.7222222222222222 0.01428571428571429 0  0.7777777777777778 0.01428571428571429 0  0.8333333333333334 0.01428571428571429 0  0.8888888888888888 0.01428571428571429 0  0.9444444444444444 0.01428571428571429 0  1 0.01428571428571429 0  0 0.02857142857142857 0  0.05555555555555555 0.02857142857142857 0  0.1111111111111111 0.02857142857142857 0  0.1666666666666667 0.02857142857142857 0  0.2222222222222222 0.02857142857142857 0  0.2777777777777778 0.02857142857142857 0  0.3333333333333333 0.02857142857142857 0  0.3888888888888889 0.02857142857142857 0  0.4444444444444444 0.02857142857142857 0  0.5 0.02857142857142857 0  0.5555555555555556 0.02857142857142857 0  0.6111111111111112 0.02857142857142857 0  0.6666666666666666 0.02857142857142857 0  0.7222222222222222 0.02857142857142857 0  0.7777777777777778 0.02857142857142857 0  0.8333333333333334 0.02857142857142857 0  0.8888888888888888 0.02857142857142857 0  0.9444444444444444 0.02857142857142857 0  1 0.02857142857142857 0  0 0.04285714285714286 0  0.05555555555555555 0.04285714285714286 0  0.1111111111111111 0.04285714285714286 0  0.1666666666666667 0.04285714285714286 0  0.2222222222222222 0.04285714285714286 0  0.2777777777777778 0.04285714285714286 0  0.3333333333333333 0.04285714285714286 0  0.3888888888888889 0.04285714285714286 0  0.4444444444444444 0.04285714285714286 0  0.5 0.04285714285714286 0  0.5555555555555556 0.04285714285714286 0  0.6111111111111112 0.04285714285714286 0  0.6666666666666666 0.04285714285714286 0  0.7222222222222222 0.04285714285714286 0  0.7777777777777778 0.04285714285714286 0  0.8333333333333334 0.04285714285714286 0  0.8888888888888888 0.04285714285714286 0  0.9444444444444444 0.04285714285714286 0  1 0.04285714285714286 0  0 0.05714285714285715 0  0.05555555555555555 0.05714285714285715 0  0.1111111111111111 0.05714285714285715 0  0.1666666666666667 0.05714285714285715 0  0.2222222222222222 0.05714285714285715 0  0.2777777777777778 0.05714285714285715 0  0.3333333333333333 0.05714285714285715 0  0.3888888888888889 0.05714285714285715 0  0.4444444444444444 0.05714285714285715 0  0.5 0.05714285714285715 0  0.5555555555555556 0.05714285714285715 0  0.6111111111111112 0.05714285714285715 0  0.6666666666666666 0.05714285714285715 0  0.7222222222222222 0.05714285714285715 0  0.7777777777777778 0.05714285714285715 0  0.8333333333333334 0.05714285714285715 0  0.8888888888888888 0.05714285714285715 0  0.9444444444444444 0.05714285714285715 0  1 0.05714285714285715 0  0 0.07142857142857142 0  0.05555555555555555 0.07142857142857142 0  0.1111111111111111 0.07142857142857142 0  0.1666666666666667 0.07142857142857142 0  0.2222222222222222 0.07142857142857142 0  0.2777777777777778 0.07142857142857142 0  0.3333333333333333 0.07142857142857142 0  0.3888888888888889 0.07142857142857142 0  0.4444444444444444 0.07142857142857142 0  0.5 0.07142857142857142 0  0.5555555555555556 0.07142857142857142 0  0.6111111111111112 0.07142857142857142 0  0.6666666666666666 0.07142857142857142 0  0.7222222222222222 0.07142857142857142 0  0.7777777777777778 0.07142857142857142 0  0.8333333333333334 0.07142857142857142 0  0.8888888888888888 0.07142857142857142 0  0.9444444444444444 0.07142857142857142 0  1 0.07142857142857142 0  0 0.08571428571428573 0  0.05555555555555555 0.08571428571428573 0  0.1111111111111111 0.08571428571428573 0  0.1666666666666667 0.08571428571428573 0  0.2222222222222222 0.08571428571428573 0  0.2777777777777778 0.08571428571428573 0  0.3333333333333333 0.08571428571428573 0  0.3888888888888889 0.08571428571428573 0  0.4444444444444444 0.08571428571428573 0  0.5 0.08571428571428573 0  0.5555555555555556 0.08571428571428573 0  0.6111111111111112 0.08571428571428573 0  0.6666666666666666 0.08571428571428573 0  0.7222222222222222 0.08571428571428573 0  0.7777777777777778 0.08571428571428573 0  0.8333333333333334 0.08571428571428573 0  0.8888888888888888 0.08571428571428573 0  0.9444444444444444 0.08571428571428573 0  1 0.08571428571428573 0  0 0.1 0  0.05555555555555555 0.1 0  0.1111111111111111 0.1 0  0.1666666666666667 0.1 0  0.2222222222222222 0.1 0  0.2777777777777778 0.1 0  0.3333333333333333 0.1 0  0.3888888888888889 0.1 0  0.4444444444444444 0.1 0  0.5 0.1 0  0.5555555555555556 0.1 0  0.6111111111111112 0.1 0  0.6666666666666666 0.1 0  0.7222222222222222 0.1 0  0.7777777777777778 0.1 0  0.8333333333333334 0.1 0  0.8888888888888888 0.1 0  0.9444444444444444 0.1 0  1 0.1 0  0 0 0.01  0.05555555555555555 0 0.01  0.1111111111111111 0 0.01  0.1666666666666667 0 0.01  0.2222222222222222 0 0.01  0.2777777777777778 0 0.01  0.3333333333333333 0 0.01  0.3888888888888889 0 0.01  0.4444444444444444 0 0.01  0.5 0 0.01  0.5555555555555556 0 0.01  0.6111111111111112 0 0.01  0.6666666666666666 0 0.01  0.7222222222222222 0 0.01  0.7777777777777778 0 0.01  0.8333333333333334 0 0.01  0.8888888888888888 0 0.01  0.9444444444444444 0 0.01  1 0 0.01  0 0.01428571428571429 0.01  0.05555555555555555 0.01428571428571429 0.01  0.1111111111111111 0.01428571428571429 0.01  0.1666666666666667 0.01428571428571429 0.01  0.2222222222222222 0.01428571428571429 0.01  0.2777777777777778 0.01428571428571429 0.01  0.3333333333333333 0.01428571428571429 0.01  0.3888888888888889 0.01428571428571429 0.01  0.4444444444444444 0.01428571428571429 0.01  0.5 0.01428571428571429 0.01  0.5555555555555556 0.01428571428571429 0.01  0.6111111111111112 0.01428571428571429 0.01  0.6666666666666666 0.01428571428571429 0.01  0.7222222222222222 0.01428571428571429 0.01  0.7777777777777778 0.01428571428571429 0.01  0.8333333333333334 0.01428571428571429 0.01  0.8888888888888888 0.01428571428571429 0.01  0.9444444444444444 0.01428571428571429 0.01  1 0.01428571428571429 0.01  0 0.02857142857142857 0.01  0.05555555555555555 0.02857142857142857 0.01  0.1111111111111111 0.02857142857142857 0.01  0.1666666666666667 0.02857142857142857 0.01  0.2222222222222222 0.02857142857142857 0.01  0.2777777777777778 0.02857142857142857 0.01  0.3333333333333333 0.02857142857142857 0.01  0.3888888888888889 0.02857142857142857 0.01  0.4444444444444444 0.02857142857142857 0.01  0.5 0.02857142857142857 0.01  0.5555555555555556 0.02857142857142857 0.01  0.6111111111111112 0.02857142857142857 0.01  0.6666666666666666 0.02857142857142857 0.01  0.7222222222222222 0.02857142857142857 0.01  0.7777777777777778 0.02857142857142857 0.01  0.8333333333333334 0.02857142857142857 0.01  0.8888888888888888 0.02857142857142857 0.01  0.9444444444444444 0.02857142857142857 0.01  1 0.02857142857142857 0.01  0 0.04285714285714286 0.01  0.05555555555555555 0.04285714285714286 0.01  0.1111111111111111 0.04285714285714286 0.01  0.1666666666666667 0.04285714285714286 0.01  0.2222222222222222 0.04285714285714286 0.01  0.2777777777777778 0.04285714285714286 0.01  0.3333333333333333 0.04285714285714286 0.01  0.3888888888888889 0.04285714285714286 0.01  0.4444444444444444 0.04285714285714286 0.01  0.5 0.04285714285714286 0.01  0.5555555555555556 0.04285714285714286 0.01  0.6111111111111112 0.04285714285714286 0.01  0.6666666666666666 0.04285714285714286 0.01  0.7222222222222222 0.04285714285714286 0.01  0.7777777777777778 0.04285714285714286 0.01  0.8333333333333334 0.04285714285714286 0.01  0.8888888888888888 0.04285714285714286 0.01  0.9444444444444444 0.04285714285714286 0.01  1 0.04285714285714286 0.01  0 0.05714285714285715 0.01  0.05555555555555555 0.05714285714285715 0.01  0.1111111111111111 0.05714285714285715 0.01  0.1666666666666667 0.05714285714285715 0.01  0.2222222222222222 0.05714285714285715 0.01  0.2777777777777778 0.05714285714285715 0.01  0.3333333333333333 0.05714285714285715 0.01  0.3888888888888889 0.05714285714285715 0.01  0.4444444444444444 0.05714285714285715 0.01  0.5 0.05714285714285715 0.01  0.5555555555555556 0.05714285714285715 0.01  0.6111111111111112 0.05714285714285715 0.01  0.6666666666666666 0.05714285714285715 0.01  0.7222222222222222 0.05714285714285715 0.01  0.7777777777777778 0.05714285714285715 0.01  0.8333333333333334 0.05714285714285715 0.01  0.8888888888888888 0.05714285714285715 0.01  0.9444444444444444 0.05714285714285715 0.01  1 0.05714285714285715 0.01  0 0.07142857142857142 0.01  0.05555555555555555 0.07142857142857142 0.01  0.1111111111111111 0.07142857142857142 0.01  0.1666666666666667 0.07142857142857142 0.01  0.2222222222222222 0.07142857142857142 0.01  0.2777777777777778 0.07142857142857142 0.01  0.3333333333333333 0.07142857142857142 0.01  0.3888888888888889 0.07142857142857142 0.01  0.4444444444444444 0.07142857142857142 0.01  0.5 0.07142857142857142 0.01  0.5555555555555556 0.07142857142857142 0.01  0.6111111111111112 0.07142857142857142 0.01  0.6666666666666666 0.07142857142857142 0.01  0.7222222222222222 0.07142857142857142 0.01  0.7777777777777778 0.07142857142857142 0.01  0.8333333333333334 0.07142857142857142 0.01  0.8888888888888888 0.07142857142857142 0.01  
[...]
<PointData  Vectors="f_36"> 
<DataArray  type="Float64"  Name="f_36"  NumberOfComponents="3" format="ascii">0.0000000000000000e+00 0.0000000000000000e+00 0.0000000000000000e+00  3.2439718203905788e-03 -6.0422604582953156e-03 1.3474833566541018e-02  3.5015500530453970e-03 -1.1685894900975595e-02 3.1045486848679235e-02  1.5275236207644171e-03 -1.4954839841681054e-02 4.3161039060499853e-02  -6.0386367797832169e-05 -1.5284515330892586e-02 4.3716428421358519e-02  -6.3960405504375295e-05 -1.4970773629144040e-02 4.2328038231501434e-02  1.5516777306643313e-04 -1.4995944636168438e-02 4.3068521070226427e-02  1.4179034941993129e-04 -1.5036052307581175e-02 4.3537443357795122e-02  1.4732032674064595e-04 -1.5056490769453526e-02 4.3950584789519229e-02  1.6178726900378362e-04 -1.5079518231899096e-02 4.4473006256816723e-02  1.5890223911706398e-04 -1.5102077651975639e-02 4.5005266879718300e-02  1.7924220090059556e-04 -1.5135645520103417e-02 4.5504484750291098e-02  2.0673980330327844e-04 -1.5177574963888647e-02 4.6160869002661267e-02  6.3761512458977991e-05 -1.5106189026214103e-02 4.6769870949441454e-02  1.9455795556460410e-04 -1.5065511616468980e-02 4.6366172419132878e-02  6.7954080832925278e-04 -1.5682012963361927e-02 4.8177638047309103e-02  3.8991103470179878e-04 -1.6488159993458800e-02 5.2221397847160254e-02  -6.5836598885512859e-04 -1.6651963472139007e-02 5.3065051011635674e-02  -1.6969723954534098e-03 -1.7458914833983864e-02 5.1946467117239915e-02  0.0000000000000000e+00 0.0000000000000000e+00 0.0000000000000000e+00  3.0691903590945222e-03 -5.1062089162953218e-03 8.1503052919433498e-03  3.4458593467200458e-03 -1.0329457191486830e-02 2.0513978013057245e-02  1.6935818030344681e-03 -1.3588260530438930e-02 2.9577327863274203e-02  -1.3208241761606070e-05 -1.4071998091511388e-02 2.9890598952901689e-02  -1.1050591577947175e-04 -1.3798609173948668e-02 2.8736046421221569e-02  1.5800537590251245e-04 -1.3815544184323137e-02 2.9424310538316727e-02  1.4671001897800144e-04 -1.3861039983738157e-02 2.9897131935804254e-02  1.4517155359125954e-04 -1.3886132694703032e-02 3.0303656269914544e-02  1.6128825049167655e-04 -1.3915780645086718e-02 3.0813760701903115e-02  1.6151840500496254e-04 -1.3945191788585094e-02 3.1338176900091323e-02  1.7521982279801007e-04 -1.3982942292449695e-02 3.1833573882706453e-02  2.0114603022006617e-04 -1.4034001079964152e-02 3.2451764540086331e-02  9.5946174375192636e-05 -1.3988039411226111e-02 3.3113341598257233e-02  1.6175493946011767e-04 -1.3928584732769689e-02 3.2837947791601006e-02  6.1196056886055430e-04 -1.4454067400435864e-02 3.4109466617043262e-02  5.0510820383790011e-04 -1.5232323372389975e-02 3.7367071712496348e-02  -3.2304867001454351e-04 -1.5471850752881027e-02 3.8296873595805740e-02  -1.7563025712186435e-03 -1.6701802767712735e-02 3.8262664852091413e-02  0.0000000000000000e+00 0.0000000000000000e+00 0.0000000000000000e+00  1.8595475400751467e-03 -3.0623015228616935e-03 3.3355894002616254e-03  2.1687589264714900e-03 -6.5751584010900321e-03 9.3100553784540123e-03  1.1530867787533543e-03 -8.9585745655669652e-03 1.4006440105090024e-02  4.3728677543267001e-05 -9.3593303614701515e-03 1.4225556032479228e-02  -5.1714484133691998e-05 -9.1512863334563214e-03 1.3678043550430232e-02  1.4106355812367667e-04 -9.1703950986765197e-03 1.4202522994922065e-02  1.4103927341014839e-04 -9.2197033904859171e-03 1.4628456925364712e-02  1.3963221077316291e-04 -9.2503569219493827e-03 1.5015073226779734e-02  1.5312864945376081e-04 -9.2876664159086669e-03 1.5474065089532293e-02  1.5692869721431360e-04 -9.3256203522729172e-03 1.5952030666530732e-02  1.6549106793568790e-04 -9.3664811601732543e-03 1.6419777203341684e-02  1.8062273390329279e-04 -9.4238234263860077e-03 1.6949801457088499e-02  1.2906051307173033e-04 -9.4243185276416380e-03 1.7553179734404262e-02  1.5381994319915365e-04 -9.3648504437780430e-03 1.7609324637253617e-02  4.2193202290862804e-04 -9.6983997608364545e-03 1.8376903001087810e-02  4.1832648913949524e-04 -1.0296262288407279e-02 2.0304779849973233e-02  5.1944007986901982e-05 -1.0484235655779148e-02 2.1071863698216446e-02  -1.8820124315856188e-03 -1.2225335386612170e-02 2.1793001670016372e-02  0.0000000000000000e+00 0.0000000000000000e+00 0.0000000000000000e+00  2.3577602326138122e-05 -1.9852603999210406e-06 3.5139963264736859e-05  4.4773800530455848e-05 -6.2878753664332084e-06 1.3158270196032763e-04  6.3644860660099642e-05 -1.2868999705683720e-05 2.8446359764774666e-04  8.0245125557032221e-05 -2.1435936147556979e-05 4.8716830694876091e-04  9.4721938610410698e-05 -3.1757565921977094e-05 7.3351587389817519e-04  1.0721515297167807e-04 -4.3616144233181914e-05 1.0177360924964395e-03  1.1786124751426581e-04 -5.6806132615242306e-05 1.3344295955164493e-03  1.2680042345091281e-04 -7.1133252237541358e-05 1.6785884936773451e-03  1.3417465756268023e-04 -8.6416040482958125e-05 2.0456022393805281e-03  1.4012769266435858e-04 -1.0248674153983382e-04 2.4312610752556924e-03  1.4480549374004748e-04 -1.1919163783982441e-04 2.8317625688184128e-03  1.4835600370919448e-04 -1.3639169655223926e-04 3.2437181246195400e-03  1.5092937938157732e-04 -1.5396363032445083e-04 3.6641580424479352e-03  1.5267914037660215e-04 -1.7180051707521527e-04 4.0905392716754736e-03  1.5375791538263099e-04 -1.8981207172488445e-04 4.5207580110282093e-03  1.5431825234773025e-04 -2.0792608094213067e-04 4.9531308891562183e-03  1.5452689864531207e-04 -2.2609056374172599e-04 5.3864080836748610e-03  1.5456414465720258e-04 -2.4427622254424115e-04 5.8198504674609394e-03  0.0000000000000000e+00 0.0000000000000000e+00 0.0000000000000000e+00  2.2249931095329801e-05 -3.2525614713984181e-06 3.4772217528330403e-05  4.4278531354277599e-05 -7.4254315909504020e-06 1.3105016443887258e-04  6.3921764807719651e-05 -1.3875315438078452e-05 2.8386143588944341e-04  8.1212425948692111e-05 -2.2315067515084105e-05 4.8650419342100693e-04  9.6307415345421574e-05 -3.2518131851220910e-05 7.3279770119611732e-04  1.0935163810713323e-04 -4.4265872556930989e-05 1.0169706098693962e-03  1.2048393878410440e-04 -5.7353116830212555e-05 1.3336227621599786e-03  1.2984743916794227e-04 -7.1585794873669679e-05 1.6777458920682489e-03  1.3758741266635256e-04 -8.6782516689897190e-05 2.0447289833336762e-03  1.4385094908136273e-04 -1.0277566004212931e-04 2.4303617961132997e-03  1.4878750115799138e-04 -1.1941164211984633e-04 2.8308414164865321e-03  1.5254877240286263e-04 -1.3655153612624317e-04 3.2427787601268560e-03  1.5528874880109446e-04 -1.5407226020769125e-04 3.6632035983627312e-03  1.5716484160147406e-04 -1.7186703497050045e-04 4.0895723788960670e-03  1.5833483339958417e-04 -1.8984516955597932e-04 4.5197807729414714e-03  1.5895558837439742e-04 -2.0793492961580364e-04 4.9521446349274963e-03  1.5919663218879351e-04 -2.2608573475539506e-04 5.3854131938447097e-03  1.5924359399590711e-04 -2.4426656092994999e-04 5.8188461704430693e-03  0.0000000000000000e+00 0.0000000000000000e+00 0.0000000000000000e+00  2.0606263674163195e-03 3.3211811398689262e-03 4.9695881148651500e-03  2.1038161753464033e-03 7.0378442903346466e-03 1.1489538382380277e-02  9.2004642678955757e-04 9.7670551296507400e-03 1.5769786397351607e-02  -1.0735251125837525e-06 1.0369262025609331e-02 1.5514402594516929e-02  1.4264179111839600e-05 1.0131963297898641e-02 1.5086033225091071e-02  1.5557982428464521e-04 1.0109739355925448e-02 1.5665655067972857e-02  1.5823864016205008e-04 1.0134669023301282e-02 1.6041191865780409e-02  1.6613511140605596e-04 1.0128652404638982e-02 1.6438509982913418e-02  1.7905631908692634e-04 1.0132970030062910e-02 1.6901761506499999e-02  1.8249670182108148e-04 1.0135648575780453e-02 1.7379632920702159e-02  1.9176797399327042e-04 1.0129086283832855e-02 1.7853009436445695e-02  2.1124922334477569e-04 1.0147048159939130e-02 1.8387267950001007e-02  1.4251808381548876e-04 1.0160232565328296e-02 1.8936915129004472e-02  1.8139669626445105e-04 1.0038217029150129e-02 1.9025760815531069e-02  4.5873518698682494e-04 1.0170436472446661e-02 1.9877658655846370e-02  3.8985166402852664e-04 1.0773868388342541e-02 2.1842804045061132e-02  -7.7283588881686414e-05 1.1315019175921709e-02 2.2505415984664462e-02  -1.2604067875494273e-03 1.2853850325001956e-02 2.2041415997206881e-02  0.0000000000000000e+00 0.0000000000000000e+00 0.0000000000000000e+00  3.2387441516252588e-03 4.3057362715469318e-03 9.8644436539854947e-03  3.4274078417884509e-03 9.5321899345472971e-03 2.2527147843407695e-02  1.5478736427259150e-03 1.3558471435001154e-02 3.1139018413784702e-02  -6.9075781170331951e-05 1.4682915424091324e-02 3.1040685121731124e-02  -7.5091324257344638e-05 1.4427412875753632e-02 2.9978223376565170e-02  1.8732429705523200e-04 1.4364269359283600e-02 3.0714879322347483e-02  1.8178557299787358e-04 1.4392366045600640e-02 3.1144714748181247e-02  1.8536748351563820e-04 1.4377720767494889e-02 3.1551216042652624e-02  2.0162203331587072e-04 1.4371811373771257e-02 3.2056783862618121e-02  2.0495237610232569e-04 1.4364069735731724e-02 3.2573072398837076e-02  2.1415761913315946e-04 1.4340660379399182e-02 3.3068441443504654e-02  2.4360822932049107e-04 1.4351612528938296e-02 3.3658694780676908e-02  1.4635469936068201e-04 1.4377237237485529e-02 3.4314283902898451e-02  1.7523214407548003e-04 1.4209221486939955e-02 3.4118718924318586e-02  6.0403729958157534e-04 1.4318672243127247e-02 3.5179519832810327e-02  5.1741166401108566e-04 1.5109747295666954e-02 3.8425505598517609e-02  -2.5718374187375402e-04 1.5993359599551310e-02 3.9489373808491754e-02  -1.1617349861198472e-03 1.8418543980170388e-02 3.8615767774159399e-02  0.0000000000000000e+00 0.0000000000000000e+00 0.0000000000000000e+00  3.2418026914921862e-03 4.1894484875216690e-03 1.3685300304212836e-02  3.6735688973713668e-03 9.8019076190801521e-03 3.0977801123048501e-02  1.8327204997445302e-03 1.4260492858411652e-02 4.3242285416066194e-02  -8.8800959221939119e-05 1.5657447247867405e-02 4.4048150008295608e-02  -1.5291200851242002e-04 1.5462611171033895e-02 4.2692456369374729e-02  2.0508358040484376e-04 1.5389656812590177e-02 4.3425941375382797e-02  1.9427043189915931e-04 1.5414239963093919e-02 4.3900108659268459e-02  1.9170641244632510e-04 1.5396729808094103e-02 4.4304481420606362e-02  2.1069972173426432e-04 1.5385037791230642e-02 4.4820633049793016e-02  2.1619766657786143e-04 1.5372038833639929e-02 4.5345973270484237e-02  2.2207424137658880e-04 1.5341052865248951e-02 4.5844813358512211e-02  2.5223051874604681e-04 1.5343808931356038e-02 4.6445493506674616e-02  1.7649970162905715e-04 1.5375207333619878e-02 4.7157642035850870e-02  1.4389736152706629e-04 1.5197616318681150e-02 4.6847033050879200e-02  5.5938507605166781e-04 1.5276680973279482e-02 4.7982103889146845e-02  5.4446002921845933e-04 1.6107628953751892e-02 5.2005968007060165e-02  -4.9317741960002294e-04 1.7062389140667530e-02 5.3682700887637019e-02  -1.3061712455498056e-03 1.9825420731063480e-02 5.3643629100884202e-02  0.0000000000000000e+00 0.0000000000000000e+00 0.0000000000000000e+00  1.3180315747803309e-03 -2.3584768992826848e-03 1.2961820919937597e-02  1.6036211709384420e-03 -4.9227395695782611e-03 3.0527848962305502e-02  7.8986311418665907e-04 -6.4729671302474262e-03 4.2748241545887036e-02  -7.1144086520504294e-06 -6.6365194553864252e-03 4.3350357195606565e-02  -6.9316717603435033e-05 -6.4579129690785688e-03 4.1908892395600091e-02  5.7343491571862659e-05 -6.4672695189872381e-03 4.2636632959080573e-02  6.4006282527903806e-05 -6.5043742224060210e-03 4.3115237723357847e-02  6.1355138853794698e-05 -6.5235880817266839e-03 4.3524910800670717e-02  6.8067701647775861e-05 -6.5413267353021335e-03 4.4045553406586613e-02  6.5951675973882710e-05 -6.5613336410709393e-03 4.4576564099695293e-02  7.3201353351714783e-05 -6.5890674458850317e-03 4.5072414985749563e-02  9.5643769896783565e-05 -6.6192043539397448e-03 4.5728287564048724e-02  4.5215783388182611e-05 -6.5946591091139792e-03 4.6348293142157007e-02  6.7656819853031930e-05 -6.5720125824032267e-03 4.5921265905544545e-02  2.4329680205274044e-04 -6.8411665544211393e-03 4.7680406166404204e-02  6.2740090566604589e-05 -7.2311267778813228e-03 5.1742917857111666e-02  -6.6591276423282433e-04 -7.4805906847505129e-03 5.2610054631061977e-02  -1.5033175536136301e-03 -8.4192498163018787e-03 5.1486439045623715e-02  0.0000000000000000e+00 0.0000000000000000e+00 0.0000000000000000e+00  1.4050330214481269e-03 -2.0704351688559559e-03 7.7795088733373383e-03  1.6960928484893716e-03 -4.2964235091872242e-03 2.0104285761859977e-02  8.9341494418577582e-04 -5.7208728095739384e-03 2.9224954693599807e-02  1.2661024312852212e-05 -5.9441675848706157e-03 2.9547348229367453e-02  -9.0876604504278112e-05 -5.8149269868218202e-03 2.8323413260571518e-02  5.9781963891193976e-05 -5.8183925414222485e-03 2.8999882773985207e-02  7.0192076808640470e-05 -5.8499685700982079e-03 2.9486686352175703e-02  6.3349549573950400e-05 -5.8691794920107615e-03 2.9891048222479604e-02  7.0373025609121742e-05 -5.8868617120265447e-03 3.0400861348573963e-02  7.0447904366113855e-05 -5.9062069413229864e-03 3.0926202945575666e-02  7.5857937958969868e-05 -5.9327034830645468e-03 3.1420281487105128e-02  9.3323560698603270e-05 -5.9622443982491466e-03 3.2038175405233883e-02  5.3950937325366653e-05 -5.9446693662245998e-03 3.2712880714168342e-02  6.6643432673146950e-05 -5.9260028466871653e-03 3.2424566756869042e-02  2.4371214289115048e-04 -6.1532018522035756e-03 3.3652418402783005e-02  1.5912307011531454e-04 -6.4816274914363632e-03 3.6927656596009183e-02  -3.8045357200935687e-04 -6.6753071946635727e-03 3.7893971791038088e-02  -1.4259031346876444e-03 -7.6902951790295878e-03 3.7964484580365304e-02  0.0000000000000000e+00 0.0000000000000000e+00 0.0000000000000000e+00  9.2149809478845213e-04 -1.2517929495879606e-03 2.8967032032344827e-03  1.1213649771715968e-03 -2.6198050683244704e-03 8.6094715331030414e-03  6.2506050236376960e-04 -3.5472105300358549e-03 1.3172765623480956e-02  3.4912529232667598e-05 -3.7275835561772566e-03 1.3332443004645329e-02  -5.1042487122987580e-05 -3.6640041615362408e-03 1.2726181275828060e-02  5.7246405919364989e-05 -3.6706887938256299e-03 1.3242939512626334e-02  6.9298909741398180e-05 -3.6948580636604060e-03 1.3681488280697580e-02  6.4068001664868517e-05 -3.7137294187784341e-03 1.4067919900235412e-02  6.9814616017869967e-05 -3.7325742849092223e-03 1.4527912645264741e-02  7.2013775284130829e-05 -3.7524419693605138e-03 1.5008123111070869e-02  7.5778764847307374e-05 -3.7764432762179925e-03 1.5476345258956426e-02  8.4604533637643113e-05 -3.8041687719302477e-03 1.6007510939688829e-02  6.4905143359798292e-05 -3.8047038130697647e-03 1.6622968622942363e-02  7.1785411722378350e-05 -3.7968894511511888e-03 1.6673927918054263e-02  1.8211672343934087e-04 -3.9398555200135799e-03 1.7397807242217518e-02  1.6716298081084110e-04 -4.1574799714211184e-03 1.9313024046141981e-02  -6.4707608373549023e-05 -4.2493937059693877e-03 2.0092464336301769e-02  -1.2959762637131734e-03 -5.1527149801718465e-03 2.0837048153183903e-02  0.0000000000000000e+00 0.0000000000000000e+00 0.0000000000000000e+00  1.1104785165746157e-05 -1.8427006486495828e-06 3.4160698598056301e-05  2.1739172404364659e-05 -6.0984982211283928e-06 1.3069151818149969e-04  3.1127814780301512e-05 -1.2605226110589532e-05 2.8366951017226848e-04  3.9386756366963601e-05 -2.1108480642616634e-05 4.8647019567927202e-04  4.6592732393468535e-05 -3.1373103224160379e-05 7.3290778238575003e-04  5.2815860739065460e-05 -4.3180612902805361e-05 1.0172121311067235e-03  5.8123487163420843e-05 -5.6325055980765352e-05 1.3339838643378797e-03  6.2584771961277463e-05 -7.0611918084991066e-05 1.6782149561391198e-03  6.6269831765753724e-05 -8.5859416765443614e-05 2.0452947875000344e-03  6.9249583471933394e-05 -1.0189948173848878e-04 2.4310135183640801e-03  7.1596012964941495e-05 -1.1857808358108215e-04 2.8315686209214584e-03  7.3382057593429276e-05 -1.3575585532649837e-04 3.2435714121715237e-03  7.4681645894840974e-05 -1.5330918441748255e-04 3.6640520927226140e-03  7.5570348323240961e-05 -1.7113085355606355e-04 4.0904674867855741e-03  7.6123638695910724e-05 -1.8913000696491050e-04 4.5207137893247150e-03  7.6416569771502882e-05 -2.0723397735315441e-04 4.9531075060830843e-03  7.6530256971983894e-05 -2.2539077892417780e-04 5.3863981546147539e-03  7.6551627282006821e-05 -2.4356952799146320e-04 5.8198431011089596e-03  0.0000000000000000e+00 0.0000000000000000e+00 0.0000000000000000e+00  1.1256140115598955e-05 -2.7678323934611312e-06 3.3598000705056347e-05  2.2647697753306243e-05 -6.8512546308507827e-06 1.3006899832623874e-04  3.2637586328977557e-05 -1.3265321769422927e-05 2.8298981423215136e-04  4.1432185414076297e-05 -2.1685491010885620e-05 4.8573709216849866e-04  4.9112085321971222e-05 -3.1873274128026578e-05 7.3212778192441492e-04  5.5751383627966561e-05 -4.3609121857208455e-05 1.0163914403447899e-03  6.1420341984311561e-05 -5.6687065896887456e-05 1.3331281587024000e-03  6.6191155620262218e-05 -7.0912726463900403e-05 1.6773294997881342e-03  7.0137309947628824e-05 -8.6104379730230537e-05 2.0443843639734727e-03  7.3333234929317249e-05 -1.0209403172872398e-04 2.4300824317438595e-03  7.5854556785561866e-05 -1.1872774020506783e-04 2.8306206854763756e-03  7.7778087923616548e-05 -1.3586621097171233e-04 3.2426099425795986e-03  7.9181808393527221e-05 -1.5338593803334286e-04 3.6630798826527791e-03  8.0145405463101502e-05 -1.7117980905508777e-04 4.0894868038998545e-03  8.0748999263051041e-05 -1.8915685048712553e-04 4.5197262999579560e-03  8.1072488433976545e-05 -2.0724457803816796e-04 4.9521142607255137e-03  8.1201605997896229e-05 -2.2539154727741994e-04 5.3853995141475231e-03  8.1228696438473218e-05 -2.4356588277309670e-04 5.8188400439260447e-03  0.0000000000000000e+00 0.0000000000000000e+00 0.0000000000000000e+00  1.0344847066229847e-03 1.1804342044031732e-03 4.3823861877584844e-03  1.1429683284398336e-03 2.4692809308176377e-03 1.0266232253902153e-02  5.6726302657387768e-04 3.4494549012037568e-03 1.4014590611208820e-02  1.9036879868396300e-05 3.6833400740902454e-03 1.3506721158704785e-02  -1.5673530065496776e-05 3.5977509240146194e-03 1.3033838278594204e-02  7.9104416038024351e-05 3.5764914860543220e-03 1.3627205174661223e-02  8.9232467681965043e-05 3.5710849361920878e-03 1.4005549180140710e-02  8.9914210360728816e-05 3.5544346089525819e-03 1.4399333760867300e-02  9.6913305963519547e-05 3.5417816468396178e-03 1.4860375606159678e-02  9.9007049395269636e-05 3.5270762350827394e-03 1.5336223979944330e-02  1.0264600324278975e-04 3.5062461901366189e-03 1.5808031960488484e-02  1.1723197806693769e-04 3.4962090484825705e-03 1.6337739847553653e-02  9.0260695173832636e-05 3.4902824453584341e-03 1.6887565459298082e-02  8.5685930803078498e-05 3.4267853195531126e-03 1.6983426515768799e-02  2.0368865300283802e-04 3.4392076366449192e-03 1.7807827911832538e-02  1.7939037375880017e-04 3.6258266590255966e-03 1.9694864983734309e-02  -6.2825461447847268e-05 3.8569161166479527e-03 2.0234527306546259e-02  -9.5289682674541719e-04 4.5219660542869860e-03 1.9176493584342626e-02  0.0000000000000000e+00 0.0000000000000000e+00 0.0000000000000000e+00  1.4909354882892826e-03 1.8770439439942379e-03 9.4932094334467584e-03  1.7364821587422599e-03 4.2265916446269976e-03 2.1978969992187399e-02  8.6369033479332703e-04 6.0797103181374733e-03 3.0410843271797088e-02  -1.4576775130426745e-05 6.6279809148853631e-03 3.0155817209561245e-02  -7.2370779581794044e-05 6.5216428444625062e-03 2.8993224668363238e-02  9.1708570511637508e-05 6.4820460257864381e-03 2.9729889159866938e-02  1.0778756123112595e-04 6.4801370073375459e-03 3.0175239348986634e-02  1.0376718988745626e-04 6.4597445903073827e-03 3.0581366328265296e-02  1.1166678523921836e-04 6.4446025817010769e-03 3.1088902091000875e-02  1.1453799841045889e-04 6.4272934595870305e-03 3.1608526303659804e-02  1.1775589295823340e-04 6.3986201149128733e-03 3.2107026877162437e-02  1.3804376469369765e-04 6.3879909212458709e-03 3.2698104216701045e-02  1.0233436025535590e-04 6.3924851313880877e-03 3.3361409371335839e-02  8.4464402312903542e-05 6.2958609730282113e-03 3.3166116771978109e-02  2.4736