<?xml version="1.0"?>
<VTKFile type="UnstructuredGrid"  version="0.1"  >
<UnstructuredGrid>
<Piece  NumberOfPoints="760" NumberOfCells="3024">
<Points>
<DataArray  type="Float64"  NumberOfComponents="3"  format="ascii">0 0 0  0.05555555555555555 0 0  0.1111111111111111 0 0  0.1666666666666667 0 0  0.2222222222222222 0 0  0.2777777777777778 0 0  0.3333333333333333 0 0  0.3888888888888889 0 0  0.4444444444444444 0 0  0.5 0 0  0.5555555555555556 0 0  0.6111111111111112 0 0  0.6666666666666666 0 0  0.7222222222222222 0 0  0.7777777777777778 0 0  0.8333333333333334 0 0  0.8888888888888888 0 0  0.9444444444444444 0 0  1 0 0  0 0.01428571428571429 0  0.05555555555555555 0.01428571428571429 0  0.1111111111111111 0.01428571428571429 0  0.1666666666666667 0.01428571428571429 0  0.2222222222222222 0.01428571428571429 0  0.2777777777777778 0.01428571428571429 0  0.3333333333333333 0.01428571428571429 0  0.3888888888888889 0.01428571428571429 0  0.4444444444444444 0.01428571428571429 0  0.5 0.01428571428571429 0  0.5555555555555556 0.01428571428571429 0  0.6111111111111112 0.01428571428571429 0  0.6666666666666666 0.01428571428571429 0  0.7222222222222222 0.01428571428571429 0  0.7777777777777778 0.01428571428571429 0  0.8333333333333334 0.01428571428571429 0  0.8888888888888888 0.01428571428571429 0  0.9444444444444444 0.01428571428571429 0  1 0.01428571428571429 0  0 0.02857142857142857 0  0.05555555555555555 0.02857142857142857 0  0.1111111111111111 0.02857142857142857 0  0.1666666666666667 0.02857142857142857 0  0.2222222222222222 0.02857142857142857 0  0.2777777777777778 0.02857142857142857 0  0.3333333333333333 0.02857142857142857 0  0.3888888888888889 0.02857142857142857 0  0.4444444444444444 0.02857142857142857 0  0.5 0.02857142857142857 0  0.5555555555555556 0.02857142857142857 0  0.6111111111111112 0.02857142857142857 0  0.6666666666666666 0.02857142857142857 0  0.7222222222222222 0.02857142857142857 0  0.7777777777777778 0.02857142857142857 0  0.8333333333333334 0.02857142857142857 0  0.8888888888888888 0.02857142857142857 0  0.9444444444444444 0.02857142857142857 0  1 0.02857142857142857 0  0 0.04285714285714286 0  0.05555555555555555 0.04285714285714286 0  0.1111111111111111 0.04285714285714286 0  0.1666666666666667 0.04285714285714286 0  0.2222222222222222 0.04285714285714286 0  0.2777777777777778 0.04285714285714286 0  0.3333333333333333 0.04285714285714286 0  0.3888888888888889 0.04285714285714286 0  0.4444444444444444 0.04285714285714286 0  0.5 0.04285714285714286 0  0.5555555555555556 0.04285714285714286 0  0.6111111111111112 0.04285714285714286 0  0.6666666666666666 0.04285714285714286 0  0.7222222222222222 0.04285714285714286 0  0.7777777777777778 0.04285714285714286 0  0.8333333333333334 0.04285714285714286 0  0.8888888888888888 0.04285714285714286 0  0.9444444444444444 0.04285714285714286 0  1 0.04285714285714286 0  0 0.05714285714285715 0  0.05555555555555555 0.05714285714285715 0  0.1111111111111111 0.05714285714285715 0  0.1666666666666667 0.05714285714285715 0  0.2222222222222222 0.05714285714285715 0  0.2777777777777778 0.05714285714285715 0  0.3333333333333333 0.05714285714285715 0  0.3888888888888889 0.05714285714285715 0  0.4444444444444444 0.05714285714285715 0  0.5 0.05714285714285715 0  0.5555555555555556 0.05714285714285715 0  0.6111111111111112 0.05714285714285715 0  0.6666666666666666 0.05714285714285715 0  0.7222222222222222 0.05714285714285715 0  0.7777777777777778 0.05714285714285715 0  0.8333333333333334 0.05714285714285715 0  0.8888888888888888 0.05714285714285715 0  0.9444444444444444 0.05714285714285715 0  1 0.05714285714285715 0  0 0.07142857142857142 0  0.05555555555555555 0.07142857142857142 0  0.1111111111111111 0.07142857142857142 0  0.1666666666666667 0.07142857142857142 0  0.2222222222222222 0.07142857142857142 0  0.2777777777777778 0.07142857142857142 0  0.3333333333333333 0.07142857142857142 0  0.3888888888888889 0.07142857142857142 0  0.4444444444444444 0.07142857142857142 0  0.5 0.07142857142857142 0  0.5555555555555556 0.07142857142857142 0  0.6111111111111112 0.07142857142857142 0  0.6666666666666666 0.07142857142857142 0  0.7222222222222222 0.07142857142857142 0  0.7777777777777778 0.07142857142857142 0  0.8333333333333334 0.07142857142857142 0  0.8888888888888888 0.07142857142857142 0  0.9444444444444444 0.07142857142857142 0  1 0.07142857142857142 0  0 0.08571428571428573 0  0.05555555555555555 0.08571428571428573 0  0.1111111111111111 0.08571428571428573 0  0.1666666666666667 0.08571428571428573 0  0.2222222222222222 0.08571428571428573 0  0.2777777777777778 0.08571428571428573 0  0.3333333333333333 0.08571428571428573 0  0.3888888888888889 0.08571428571428573 0  0.4444444444444444 0.08571428571428573 0  0.5 0.08571428571428573 0  0.5555555555555556 0.08571428571428573 0  0.6111111111111112 0.08571428571428573 0  0.6666666666666666 0.08571428571428573 0  0.7222222222222222 0.08571428571428573 0  0.7777777777777778 0.08571428571428573 0  0.8333333333333334 0.08571428571428573 0  0.8888888888888888 0.08571428571428573 0  0.9444444444444444 0.08571428571428573 0  1 0.08571428571428573 0  0 0.1 0  0.05555555555555555 0.1 0  0.1111111111111111 0.1 0  0.1666666666666667 0.1 0  0.2222222222222222 0.1 0  0.2777777777777778 0.1 0  0.3333333333333333 0.1 0  0.3888888888888889 0.1 0  0.4444444444444444 0.1 0  0.5 0.1 0  0.5555555555555556 0.1 0  0.6111111111111112 0.1 0  0.6666666666666666 0.1 0  0.7222222222222222 0.1 0  0.7777777777777778 0.1 0  0.8333333333333334 0.1 0  0.8888888888888888 0.1 0  0.9444444444444444 0.1 0  1 0.1 0  0 0 0.01  0.05555555555555555 0 0.01  0.1111111111111111 0 0.01  0.1666666666666667 0 0.01  0.2222222222222222 0 0.01  0.2777777777777778 0 0.01  0.3333333333333333 0 0.01  0.3888888888888889 0 0.01  0.4444444444444444 0 0.01  0.5 0 0.01  0.5555555555555556 0 0.01  0.6111111111111112 0 0.01  0.6666666666666666 0 0.01  0.7222222222222222 0 0.01  0.7777777777777778 0 0.01  0.8333333333333334 0 0.01  0.8888888888888888 0 0.01  0.9444444444444444 0 0.01  1 0 0.01  0 0.01428571428571429 0.01  0.05555555555555555 0.01428571428571429 0.01  0.1111111111111111 0.01428571428571429 0.01  0.1666666666666667 0.01428571428571429 0.01  0.2222222222222222 0.01428571428571429 0.01  0.2777777777777778 0.01428571428571429 0.01  0.3333333333333333 0.01428571428571429 0.01  0.3888888888888889 0.01428571428571429 0.01  0.4444444444444444 0.01428571428571429 0.01  0.5 0.01428571428571429 0.01  0.5555555555555556 0.01428571428571429 0.01  0.6111111111111112 0.01428571428571429 0.01  0.6666666666666666 0.01428571428571429 0.01  0.7222222222222222 0.01428571428571429 0.01  0.7777777777777778 0.01428571428571429 0.01  0.8333333333333334 0.01428571428571429 0.01  0.8888888888888888 0.01428571428571429 0.01  0.9444444444444444 0.01428571428571429 0.01  1 0.01428571428571429 0.01  0 0.02857142857142857 0.01  0.05555555555555555 0.02857142857142857 0.01  0.1111111111111111 0.02857142857142857 0.01  0.1666666666666667 0.02857142857142857 0.01  0.2222222222222222 0.02857142857142857 0.01  0.2777777777777778 0.02857142857142857 0.01  0.3333333333333333 0.02857142857142857 0.01  0.3888888888888889 0.02857142857142857 0.01  0.4444444444444444 0.02857142857142857 0.01  0.5 0.02857142857142857 0.01  0.5555555555555556 0.02857142857142857 0.01  0.6111111111111112 0.02857142857142857 0.01  0.6666666666666666 0.02857142857142857 0.01  0.7222222222222222 0.02857142857142857 0.01  0.7777777777777778 0.02857142857142857 0.01  0.8333333333333334 0.02857142857142857 0.01  0.8888888888888888 0.02857142857142857 0.01  0.9444444444444444 0.02857142857142857 0.01  1 0.02857142857142857 0.01  0 0.04285714285714286 0.01  0.05555555555555555 0.04285714285714286 0.01  0.1111111111111111 0.04285714285714286 0.01  0.1666666666666667 0.04285714285714286 0.01  0.2222222222222222 0.04285714285714286 0.01  0.2777777777777778 0.04285714285714286 0.01  0.3333333333333333 0.04285714285714286 0.01  0.3888888888888889 0.04285714285714286 0.01  0.4444444444444444 0.04285714285714286 0.01  0.5 0.04285714285714286 0.01  0.5555555555555556 0.04285714285714286 0.01  0.6111111111111112 0.04285714285714286 0.01  0.6666666666666666 0.04285714285714286 0.01  0.7222222222222222 0.04285714285714286 0.01  0.7777777777777778 0.04285714285714286 0.01  0.8333333333333334 0.04285714285714286 0.01  0.8888888888888888 0.04285714285714286 0.01  0.9444444444444444 0.04285714285714286 0.01  1 0.04285714285714286 0.01  0 0.05714285714285715 0.01  0.05555555555555555 0.05714285714285715 0.01  0.1111111111111111 0.05714285714285715 0.01  0.1666666666666667 0.05714285714285715 0.01  0.2222222222222222 0.05714285714285715 0.01  0.2777777777777778 0.05714285714285715 0.01  0.3333333333333333 0.05714285714285715 0.01  0.3888888888888889 0.05714285714285715 0.01  0.4444444444444444 0.05714285714285715 0.01  0.5 0.05714285714285715 0.01  0.5555555555555556 0.05714285714285715 0.01  0.6111111111111112 0.05714285714285715 0.01  0.6666666666666666 0.05714285714285715 0.01  0.7222222222222222 0.05714285714285715 0.01  0.7777777777777778 0.05714285714285715 0.01  0.8333333333333334 0.05714285714285715 0.01  0.8888888888888888 0.05714285714285715 0.01  0.9444444444444444 0.05714285714285715 0.01  1 0.05714285714285715 0.01  0 0.07142857142857142 0.01  0.05555555555555555 0.07142857142857142 0.01  0.1111111111111111 0.07142857142857142 0.01  0.1666666666666667 0.07142857142857142 0.01  0.2222222222222222 0.07142857142857142 0.01  0.2777777777777778 0.07142857142857142 0.01  0.3333333333333333 0.07142857142857142 0.01  0.3888888888888889 0.07142857142857142 0.01  0.4444444444444444 0.07142857142857142 0.01  0.5 0.07142857142857142 0.01  0.5555555555555556 0.07142857142857142 0.01  0.6111111111111112 0.07142857142857142 0.01  0.6666666666666666 0.07142857142857142 0.01  0.7222222222222222 0.07142857142857142 0.01  0.7777777777777778 0.07142857142857142 0.01  0.8333333333333334 0.07142857142857142 0.01  0.8888888888888888 0.07142857142857142 0.01  
[...]
<PointData  Vectors="f_36"> 
<DataArray  type="Float64"  Name="f_36"  NumberOfComponents="3" format="ascii">0.0000000000000000e+00 0.0000000000000000e+00 0.0000000000000000e+00  -4.0250076878512565e-04 9.2226573793484812e-04 -2.4956458081988727e-03  -9.0760055917799164e-05 1.2836124456417101e-03 -4.1315446889538263e-03  6.3756296143935168e-04 6.4075685039836612e-04 -3.1206935427039043e-03  1.4419517683095435e-03 -1.1846154537139700e-03 1.7191208741725921e-03  1.8190606833107653e-03 -3.7289541454555881e-03 9.5160576062978067e-03  1.5098011259888199e-03 -6.0270054202397486e-03 1.7233409113189380e-02  6.6462827486905081e-04 -7.2340646690046626e-03 2.1892077881003211e-02  -1.1684630677944127e-04 -7.2159797773301820e-03 2.2090495519602887e-02  -2.4406612963971745e-05 -6.9217335710571835e-03 2.0253295029077825e-02  6.3005356325022727e-04 -7.4792514012126240e-03 2.1586254402768554e-02  8.2899889355052226e-04 -8.6391815070614580e-03 2.5731589704264347e-02  6.4979090011231652e-04 -9.6165366953820004e-03 2.8943901088004393e-02  5.6613957837417614e-04 -1.0380513238600354e-02 3.1346469600276955e-02  5.0365903263909872e-04 -1.1043519161901046e-02 3.3654576510234666e-02  3.8327554387809461e-04 -1.1551341172197697e-02 3.5451320509242906e-02  2.1180627113531007e-04 -1.1925294538329155e-02 3.6923695193650422e-02  -2.9472465102293159e-04 -1.2222244479159223e-02 3.8209479451080060e-02  -1.0224326487275738e-03 -1.2959181002709591e-02 3.8132786102127038e-02  0.0000000000000000e+00 0.0000000000000000e+00 0.0000000000000000e+00  -4.0706097778228439e-04 8.0964578128546862e-04 -1.6622400877927205e-03  -1.2984944894513841e-04 1.2011305705533950e-03 -2.9490063185793999e-03  5.4781103913132605e-04 7.0930511660742134e-04 -2.4802938423415552e-03  1.3286864958666036e-03 -8.8554397714822738e-04 7.2418008671179502e-04  1.7411752896111861e-03 -3.2140382833049375e-03 6.2004100487016520e-03  1.4973575987896140e-03 -5.4019987281508581e-03 1.1801798983008168e-02  7.1981568615046300e-04 -6.6281936425466531e-03 1.5329953870737581e-02  -6.2257719819618066e-05 -6.6847287082474277e-03 1.5568683835957699e-02  -7.6129480062341498e-05 -6.3833058357431437e-03 1.4064628627971832e-02  5.5292041108553111e-04 -6.8257197091682511e-03 1.4885391130974084e-02  8.2459453829154480e-04 -7.8827188961168391e-03 1.7964871207278778e-02  6.5122092879671780e-04 -8.8105408247112927e-03 2.0323614921502167e-02  5.5026729736997848e-04 -9.5321288523920935e-03 2.2041848684300772e-02  4.9818202028073012e-04 -1.0158137533471815e-02 2.3750103775382989e-02  3.8474691165193254e-04 -1.0643524435622524e-02 2.5100387644503279e-02  2.5564790341445269e-04 -1.1006604641287972e-02 2.6240328191883149e-02  -6.5367691060331070e-05 -1.1325945153839691e-02 2.7390707617168615e-02  -1.0674544340586614e-03 -1.2372608340640424e-02 2.7983234407776020e-02  0.0000000000000000e+00 0.0000000000000000e+00 0.0000000000000000e+00  -2.4891342251644573e-04 5.2445052378669314e-04 -7.4010492840586141e-04  -8.5210050320593740e-05 8.3792365732440267e-04 -1.3921730801266139e-03  3.3145780594645222e-04 5.9407302302833822e-04 -1.2364894752308531e-03  8.2262112065527207e-04 -4.1172271791685948e-04 2.6160083507134716e-04  1.1003195455708522e-03 -1.9792122874589049e-03 2.9521194950701290e-03  9.7132682254019037e-04 -3.5214054023212532e-03 5.8009939362201933e-03  5.0364401065833200e-04 -4.4400163844624356e-03 7.7067283285300213e-03  1.1975858834625800e-05 -4.5155558874088626e-03 7.9784316420357278e-03  -3.1134834464357778e-05 -4.2564268441865841e-03 7.2591651777064222e-03  3.5730875544561256e-04 -4.4972220448323596e-03 7.6899674358597188e-03  5.5738237606799970e-04 -5.2209325518492930e-03 9.3556370407884629e-03  4.5267045194839523e-04 -5.8716687014002001e-03 1.0655483177900722e-02  3.8172609759617489e-04 -6.3680764594194897e-03 1.1609517803704329e-02  3.5256130995269842e-04 -6.8031951523081190e-03 1.2586943623442187e-02  2.8513586983125260e-04 -7.1465605778657168e-03 1.3393640249069076e-02  2.1825149692650226e-04 -7.4168140742399222e-03 1.4101948166369567e-02  1.3346132678446483e-04 -7.6415300341807178e-03 1.4874562772280771e-02  -1.2467640908935332e-03 -9.0289439353204350e-03 1.5739656711775050e-02  0.0000000000000000e+00 0.0000000000000000e+00 0.0000000000000000e+00  1.4399588790250053e-05 -1.2075671910221939e-06 2.1085473620834492e-05  2.7677937488458211e-05 -3.8585740691739946e-06 8.0130296608722372e-05  3.9811926675378517e-05 -7.9573774035334348e-06 1.7505880030086685e-04  5.0735702311003585e-05 -1.3349640763371086e-05 3.0249802826416337e-04  6.0437529111654722e-05 -1.9907733800517719e-05 4.5900341866383828e-04  6.8933025278268965e-05 -2.7501642325261793e-05 6.4112414733863757e-04  7.6269062428660465e-05 -3.6002245145251333e-05 8.4549663250936633e-04  8.2516895615387633e-05 -4.5284503835235708e-05 1.0689364390553760e-03  8.7755018597540570e-05 -5.5230632720389765e-05 1.3084902938881701e-03  9.2053095477565586e-05 -6.5731069510767054e-05 1.5614245076570042e-03  9.5475640158745041e-05 -7.6683015293893726e-05 1.8251768445152270e-03  9.8098598872559719e-05 -8.7989806138237531e-05 2.0973670678842717e-03  1.0001279087273096e-04 -9.9563359605373184e-05 2.3758566383016884e-03  1.0131823949662134e-04 -1.1132687900904098e-04 2.6587801072284608e-03  1.0212305393241043e-04 -1.2321594489757691e-04 2.9445643158104613e-03  1.0254342442219097e-04 -1.3517954282939594e-04 3.2319539115770869e-03  1.0270258731162211e-04 -1.4718101845112637e-04 3.5200317088659020e-03  1.0273171742982563e-04 -1.5919995083417496e-04 3.8082410633855875e-03  0.0000000000000000e+00 0.0000000000000000e+00 0.0000000000000000e+00  1.3571408080171134e-05 -1.9973070333070273e-06 2.0863886732934875e-05  2.7338577383839780e-05 -4.5888411176482529e-06 7.9812020618256140e-05  3.9940109875107426e-05 -8.6209927671877244e-06 1.7470348456429419e-04  5.1297629142368635e-05 -1.3941175346887923e-05 3.0211048227726009e-04  6.1399622834352940e-05 -2.0426752774931593e-05 4.5858669840418017e-04  7.0258678164088082e-05 -2.7950255876730159e-05 6.4068042595079387e-04  7.7919312182309812e-05 -3.6384769551532920e-05 8.4502839238097802e-04  8.4452634402774221e-05 -4.5606241766466822e-05 1.0684470144621400e-03  8.9939622429402867e-05 -5.5496229985063659e-05 1.3079835976695395e-03  9.4453392189942318e-05 -6.5943957666755320e-05 1.5609041279102647e-03  9.8059655487020298e-05 -7.6846939455947716e-05 1.8246454834738143e-03  1.0083429494652787e-04 -8.8109882919037381e-05 2.0968270511354400e-03  1.0286962529437546e-04 -9.9645431665454167e-05 2.3753103038353326e-03  1.0426801092704174e-04 -1.1137716162404443e-04 2.6582293982991604e-03  1.0513998909083861e-04 -1.2324113600049644e-04 2.9440104711562663e-03  1.0560458264778198e-04 -1.3518675473729304e-04 3.2313972229113439e-03  1.0578812947659435e-04 -1.4717770012817540e-04 3.5194711977241250e-03  1.0582482244507496e-04 -1.5919284884805457e-04 3.8076743295170153e-03  0.0000000000000000e+00 0.0000000000000000e+00 0.0000000000000000e+00  -2.5407359711617557e-04 -5.5669642441915615e-04 -9.7243658407570655e-04  -3.4701956302242383e-05 -8.9109226638568642e-04 -1.5452029165477096e-03  4.0976946963083101e-04 -6.5892344412051853e-04 -1.0777677700553304e-03  8.8141966878402440e-04 3.6590573719381893e-04 8.3501229580206567e-04  1.0885041119695926e-03 2.0050698087326719e-03 3.8311464495388923e-03  8.8502563209454847e-04 3.6500447884001163e-03 6.6976575573224652e-03  3.9925356800734355e-04 4.6711214240939885e-03 8.3451483892833106e-03  -1.9704064125675245e-05 4.8384618582345872e-03 8.3990913153700469e-03  4.0162779589674458e-05 4.5842023814421842e-03 7.7966479723548306e-03  4.0246377986279466e-04 4.7392791940655821e-03 8.4864271685889184e-03  5.2183790973952637e-04 5.4095070742991641e-03 1.0173821575579455e-02  4.4577702098222503e-04 6.0762876658071998e-03 1.1409078426731936e-02  4.2388680334711507e-04 6.6336448812326990e-03 1.2467750209491609e-02  4.1725629622245462e-04 7.1799821508893077e-03 1.3608896638142878e-02  3.8609981338327679e-04 7.6956852671061296e-03 1.4663779187594449e-02  3.1134257005180073e-04 8.1821504056391603e-03 1.5695980573184547e-02  7.2367237944850408e-05 8.7509885328273720e-03 1.6613685202418023e-02  -8.4253026613559086e-04 1.0108797627081789e-02 1.6676516295376961e-02  0.0000000000000000e+00 0.0000000000000000e+00 0.0000000000000000e+00  -4.2040928928274739e-04 -7.1558563014760112e-04 -1.8767440309261055e-03  -9.8555621608421292e-05 -1.2100301187536707e-03 -3.0419089370164508e-03  6.0019917138096600e-04 -9.5321172530407974e-04 -2.2455490143951963e-03  1.3611371975724698e-03 3.8758426249130973e-04 1.3056237546862383e-03  1.7169546252970536e-03 2.6171471966055728e-03 6.9671745337713921e-03  1.4079926278923697e-03 4.9350757716845554e-03 1.2451027600697204e-02  6.2873977776650518e-04 6.4592675485897963e-03 1.5628988338752408e-02  -7.3086288006510254e-05 6.8144841943952464e-03 1.5745068410000725e-02  -2.5116569612931531e-05 6.5107714901078539e-03 1.4469220865949959e-02  5.6910791161333019e-04 6.6721929431176174e-03 1.5454901456723400e-02  7.9403249200899362e-04 7.5525119592480894e-03 1.8406429383027171e-02  6.5605521105208944e-04 8.4913695149717392e-03 2.0631902627440742e-02  6.1127614912030151e-04 9.2882549176968900e-03 2.2480327152427003e-02  6.0511731475619741e-04 1.0062725186116782e-02 2.4464815444315700e-02  5.5223497367038973e-04 1.0800405012593935e-02 2.6294377021633085e-02  4.1444228597072188e-04 1.1506561019265725e-02 2.8067251128603251e-02  3.1284355539140793e-05 1.2376550102183255e-02 2.9629549294999346e-02  -6.3506264965533619e-04 1.4475692576614038e-02 2.9783181404193265e-02  0.0000000000000000e+00 0.0000000000000000e+00 0.0000000000000000e+00  -4.5749798866742393e-04 -7.0483702823932065e-04 -2.5110502034190758e-03  -1.6946407739772807e-04 -1.2683977936445957e-03 -4.1101570776284936e-03  5.3079927740079535e-04 -1.0645411116116776e-03 -3.0832523449403795e-03  1.3398199960386525e-03 2.8041560577965886e-04 1.6562589110884721e-03  1.7772930901939952e-03 2.6050186549925361e-03 9.3015927269602967e-03  1.5178331135990873e-03 5.0921957320384610e-03 1.6843692375194355e-02  7.2726730487448967e-04 6.7945777778114155e-03 2.1369805830218042e-02  -5.4581110419250306e-05 7.2614923517238250e-03 2.1805327201864930e-02  -1.0534740081644684e-04 6.9668580281797799e-03 2.0230175243081992e-02  5.3441435596115767e-04 7.0991394551154436e-03 2.1358728165873721e-02  8.4597469592169819e-04 7.9976533192966364e-03 2.5151877776481105e-02  6.8050610118559364e-04 8.9945420579998908e-03 2.8219121543412599e-02  6.1530187639557510e-04 9.8519898582480614e-03 3.0759225540322944e-02  6.1872064996450226e-04 1.0683878558575052e-02 3.3438484380947944e-02  5.5746245230635881e-04 1.1481982058487591e-02 3.5928514828347691e-02  3.9136759331437386e-04 1.2261738524454623e-02 3.8334167615841248e-02  -1.3610507692405751e-04 1.3192872202766062e-02 4.0535496476028741e-02  -6.9566923731132011e-04 1.5567168436073722e-02 4.1585788231678959e-02  0.0000000000000000e+00 0.0000000000000000e+00 0.0000000000000000e+00  -1.6111046246977391e-04 3.7822673011090859e-04 -2.4300824244877358e-03  -6.4663773192717684e-05 5.8238272106055913e-04 -4.1111435705938103e-03  2.3122561832289898e-04 3.5252887430411349e-04 -3.1784506203880979e-03  5.8720507478525442e-04 -4.0789751345285039e-04 1.5668613119181960e-03  7.8752553267969242e-04 -1.5205101600935952e-03 9.2972808515880707e-03  6.9942484101312571e-04 -2.5639623702478805e-03 1.7002334176955493e-02  3.6335636045903790e-04 -3.1436430391886135e-03 2.1695148202581720e-02  8.7917262820003330e-07 -3.1590202815077431e-03 2.1924061491056284e-02  -2.5892339295626035e-05 -3.0004671245846097e-03 2.0048617862569961e-02  2.3430877776480213e-04 -3.2118009860493805e-03 2.1311974199420981e-02  3.4414411774586883e-04 -3.7305335022283417e-03 2.5434909412822778e-02  2.7453924726852442e-04 -4.1772645046165074e-03 2.8642480878922412e-02  2.4003360997706079e-04 -4.5173735690991488e-03 3.1024091611435458e-02  2.2168942063748414e-04 -4.8169291275634218e-03 3.3318628254257521e-02  1.5357155822559614e-04 -5.0507005488544202e-03 3.5110348199930620e-02  1.2928533597171301e-05 -5.2291706252868310e-03 3.6577889533124935e-02  -3.8096622419043797e-04 -5.4820690769156718e-03 3.7859835561378841e-02  -9.7512149419432578e-04 -6.2520753723350883e-03 3.7784149224108894e-02  0.0000000000000000e+00 0.0000000000000000e+00 0.0000000000000000e+00  -1.8218562874824478e-04 3.3117032049176468e-04 -1.6143685709456507e-03  -7.8524793517035170e-05 5.0963795452556217e-04 -2.9307679006606853e-03  2.2935605170523266e-04 3.1954696606008553e-04 -2.5169042824287747e-03  6.0201644290206054e-04 -3.3829089178382033e-04 6.1619653106005743e-04  8.2136850007225655e-04 -1.3174330680273036e-03 6.0373646832285440e-03  7.3858846534127158e-04 -2.2536281495266473e-03 1.1619387024689606e-02  3.9447305922102186e-04 -2.7940578956152698e-03 1.5160438539812861e-02  1.3047221884767259e-05 -2.8372589927148665e-03 1.5412393767409660e-02  -4.1539949471712898e-05 -2.7096677081307574e-03 1.3870673796777451e-02  2.2998543876494453e-04 -2.8852630798551601e-03 1.4632833369625682e-02  3.7395200653994376e-04 -3.3354474093102372e-03 1.7698523762314764e-02  3.0206888398160391e-04 -3.7400119421516788e-03 2.0054344878104837e-02  2.5436489296836487e-04 -4.0521488112988929e-03 2.1748892586286352e-02  2.3551245852694618e-04 -4.3235290564456906e-03 2.3440706972977187e-02  1.7097970344394817e-04 -4.5354306038554145e-03 2.4784326017785196e-02  6.6176561961404248e-05 -4.6908584904455184e-03 2.5917186548025557e-02  -1.8149718044280572e-04 -4.8884701146404922e-03 2.7071990808607942e-02  -9.1565840051028018e-04 -5.7037858586821890e-03 2.7750110702189062e-02  0.0000000000000000e+00 0.0000000000000000e+00 0.0000000000000000e+00  -1.2050378983072980e-04 2.0415126287232259e-04 -6.8291112317552883e-04  -5.1338602911116352e-05 3.1747931823740075e-04 -1.3370450164387595e-03  1.5177332165506102e-04 2.1105750857030258e-04 -1.2342275851252897e-03  3.9860894320628408e-04 -1.8877892426291199e-04 1.5563966163705423e-04  5.4901664658098118e-04 -7.9976614507077488e-04 2.7159046701874206e-03  5.0080735196784357e-04 -1.3978597247888409e-03 5.4566206928552703e-03  2.7932390592871881e-04 -1.7573451353435317e-03 7.3059089308380662e-03  2.9690879427260711e-05 -1.8020909740554052e-03 7.5642057573237168e-03  -1.6510436359410051e-05 -1.7253940142171599e-03 6.8193944225663728e-03  1.6010431030527851e-04 -1.8295997985665112e-03 7.1949885244281357e-03  2.6794405292579503e-04 -2.1115361218728102e-03 8.8143507837525007e-03  2.2328453722728954e-04 -2.3726634528201994e-03 1.0072501430836640e-02  1.8673651654357070e-04 -2.5767785429134009e-03 1.0974720929232412e-02  1.7448366488052172e-04 -2.7540491067134599e-03 1.1910494225549123e-02  1.3587184041947002e-04 -2.8941556821003469e-03 1.2689364782569509e-02  8.2885017982963673e-05 -3.0005241697263975e-03 1.3377032496274810e-02  5.9844661261030883e-06 -3.0998891554173485e-03 1.4138743767993093e-02  -8.7244840658957663e-04 -3.8040947623416551e-03 1.5023073701444624e-02  0.0000000000000000e+00 0.0000000000000000e+00 0.0000000000000000e+00  6.7805306915653489e-06 -1.1271085346630417e-06 2.0484992533853831e-05  1.3425448640268657e-05 -3.7554089247293583e-06 7.9570403426958031e-05  1.9449192247085096e-05 -7.8149478184764856e-06 1.7454749891969396e-04  2.4874641994244468e-05 -1.3172751520828523e-05 3.0203857597782134e-04  2.9697771617452151e-05 -1.9698134463815614e-05 4.5859602531201407e-04  3.3925410028025901e-05 -2.7261272974602092e-05 6.4076788735412094e-04  3.7579457159580117e-05 -3.5733751853665919e-05 8.4518939963187999e-04  4.0694270165809212e-05 -4.4991329010008870e-05 1.0686752656470838e-03  4.3308663831921595e-05 -5.4916383869636674e-05 1.3082719618893787e-03  4.5457715256781431e-05 -6.5398692473675989e-05 1.5612460355181963e-03  4.7173377717047287e-05 -7.6334911391350577e-05 1.8250352961668589e-03  4.8492478459635575e-05 -8.7628507815440870e-05 2.0972590312109463e-03  4.9459300332748046e-05 -9.9191528155187384e-05 2.3757781500782678e-03  5.0122845584811290e-05 -1.1094693205021425e-04 2.6587268149786659e-03  5.0536045317025847e-05 -1.2282989332915690e-04 2.9445315020332533e-03  5.0755859162504878e-05 -1.3478879548272513e-04 3.2319365011508794e-03  5.0842608540150873e-05 -1.4678628461077615e-04 3.5200242542028576e-03  5.0859393933226529e-05 -1.5880057215595587e-04 3.8082355233995512e-03  0.0000000000000000e+00 0.0000000000000000e+00 0.0000000000000000e+00  6.8726782552527121e-06 -1.6986035891757512e-06 2.0148871293484655e-05  1.3982164235416504e-05 -4.2345301075237754e-06 7.9200063624637582e-05  2.0384935718796050e-05 -8.2464364558736096e-06 1.7414600212858268e-04  2.6156865856591929e-05 -1.3558002404933582e-05 3.0160831511889867e-04  3.1293127568983839e-05 -2.0037353428245506e-05 4.5813975275778231e-04  3.5799902821737916e-05 -2.7555640737908588e-05 6.4028804125645987e-04  3.9699004041745502e-05 -3.5985663495713770e-05 8.4468869518134165e-04  4.3025736402628576e-05 -4.5203873086479498e-05 1.0681570502510346e-03  4.5820836978425916e-05 -5.5092516227494474e-05 1.3077399105556034e-03  4.8121654115116559e-05 -6.5540829700095710e-05 1.5607034357877159e-03  4.9961834230780645e-05 -7.6445522505000859e-05 1.8244847547106630e-03  5.1379664576623263e-05 -8.7710731426559794e-05 2.0967028756110487e-03  5.2421628598360719e-05 -9.9249011640611541e-05 2.3752186112971658e-03  5.3139531290883528e-05 -1.1098361611170879e-04 2.6581656838445800e-03  5.3589353575881164e-05 -1.2285002621042010e-04 2.9439698677940652e-03  5.3831386092928313e-05 -1.3479689866669530e-04 3.2313744947078892e-03  5.3929572955632000e-05 -1.4678698782473893e-04 3.5194608299013394e-03  5.3950709875847087e-05 -1.5879790999096983e-04 3.8076696740492501e-03  0.0000000000000000e+00 0.0000000000000000e+00 0.0000000000000000e+00  -1.3329712909858376e-04 -1.9915360964923150e-04 -8.8242601682591670e-04  -4.2024272649742874e-05 -3.1505602789081572e-04 -1.4001897694709037e-03  1.7487333390517755e-04 -2.3981201362320077e-04 -9.6494302215568289e-04  4.2337594959699607e-04 1.1190042427299232e-04 7.8073515837892462e-04  5.5618291677099832e-04 6.8187616736087450e-04 3.4959005415682951e-03  4.8060133090121793e-04 1.2588977137750054e-03 6.0573706686068386e-03  2.4572313828888034e-04 1.6214257171902611e-03 7.4841026394936857e-03  1.5360423870532859e-05 1.6851024888534186e-03 7.4547969528696665e-03  5.8812082017091005e-06 1.5924901163939676e-03 6.8517112690167905e-03  1.8226727751772856e-04 1.6323232859399137e-03 7.5148132467189495e-03  2.6594954320834123e-04 1.8524155183493372e-03 9.1082402361322284e-03  2.3131455183232808e-04 2.0784602754271072e-03 1.0217445571027660e-02  2.1544723708727533e-04 2.2694008878710041e-03 1.1153848230727360e-02  2.1305464104314192e-04 2.4554658001439038e-03 1.2183541448708663e-02  1.9136334478041145e-04 2.6290899154664572e-03 1.3133923859193042e-02  1.3702833080377812e-04 2.7901138617945935e-03 1.4064938128792321e-02  1.8376973902588449e-05 3.0215773149338101e-03 1.4857355516135061e-02  -6.5605298092495071e-04 3.5954968339459003e-03 1.4440470100864572e-02  0.0000000000000000e+00 0.0000000000000000e+00 0.0000000000000000e+00  -2.0034178478946880e-04 -3.1654251806381375e-04 -1.8254524629562135e-03  -8.4875665441456810e-05 -5.4562569467761903e-04 -2.9941224106345612e-03  2.3423266143487032e-04 -4.4694893438370058e-04 -2.2232019482399759e-03  6.0837495670959432e-04 1.3746238814342526e-04 1.2567488163053196e-03  8.1686806110674271e-04 1.1304818584391653e-03 6.8141462750559555e-03  7.1044366368245378e-04 2.1772734690513784e-03 1.2187455110837308e-02  3.5735508387653789e-04 2.8779888782935882e-03 1.5276995521596804e-02  7.6385542960262847e-07 3.0525531759602181e-03 1.5340387951527703e-02  -2.7800039065396342e-05 2.9142199399301671e-03 1.4024974112419783e-02  2.4301465030980590e-04 2.9673327423038803e-03 1.4978051392778031e-02  3.7807304941846811e-04 3.3429363249808906e-03 1.7909160789487739e-02  3.1751685328275240e-04 3.7558894770867040e-03 2.0093817585179811e-02  2.8902603183270391e-04 4.1117944300590450e-03 2.1881256036663993e-02  2.8730252049031564e-04 4.456980