<?xml version="1.0"?>
<VTKFile type="UnstructuredGrid"  version="0.1"  >
<UnstructuredGrid>
<Piece  NumberOfPoints="760" NumberOfCells="3024">
<Points>
<DataArray  type="Float64"  NumberOfComponents="3"  format="ascii">0 0 0  0.05555555555555555 0 0  0.1111111111111111 0 0  0.1666666666666667 0 0  0.2222222222222222 0 0  0.2777777777777778 0 0  0.3333333333333333 0 0  0.3888888888888889 0 0  0.4444444444444444 0 0  0.5 0 0  0.5555555555555556 0 0  0.6111111111111112 0 0  0.6666666666666666 0 0  0.7222222222222222 0 0  0.7777777777777778 0 0  0.8333333333333334 0 0  0.8888888888888888 0 0  0.9444444444444444 0 0  1 0 0  0 0.01428571428571429 0  0.05555555555555555 0.01428571428571429 0  0.1111111111111111 0.01428571428571429 0  0.1666666666666667 0.01428571428571429 0  0.2222222222222222 0.01428571428571429 0  0.2777777777777778 0.01428571428571429 0  0.3333333333333333 0.01428571428571429 0  0.3888888888888889 0.01428571428571429 0  0.4444444444444444 0.01428571428571429 0  0.5 0.01428571428571429 0  0.5555555555555556 0.01428571428571429 0  0.6111111111111112 0.01428571428571429 0  0.6666666666666666 0.01428571428571429 0  0.7222222222222222 0.01428571428571429 0  0.7777777777777778 0.01428571428571429 0  0.8333333333333334 0.01428571428571429 0  0.8888888888888888 0.01428571428571429 0  0.9444444444444444 0.01428571428571429 0  1 0.01428571428571429 0  0 0.02857142857142857 0  0.05555555555555555 0.02857142857142857 0  0.1111111111111111 0.02857142857142857 0  0.1666666666666667 0.02857142857142857 0  0.2222222222222222 0.02857142857142857 0  0.2777777777777778 0.02857142857142857 0  0.3333333333333333 0.02857142857142857 0  0.3888888888888889 0.02857142857142857 0  0.4444444444444444 0.02857142857142857 0  0.5 0.02857142857142857 0  0.5555555555555556 0.02857142857142857 0  0.6111111111111112 0.02857142857142857 0  0.6666666666666666 0.02857142857142857 0  0.7222222222222222 0.02857142857142857 0  0.7777777777777778 0.02857142857142857 0  0.8333333333333334 0.02857142857142857 0  0.8888888888888888 0.02857142857142857 0  0.9444444444444444 0.02857142857142857 0  1 0.02857142857142857 0  0 0.04285714285714286 0  0.05555555555555555 0.04285714285714286 0  0.1111111111111111 0.04285714285714286 0  0.1666666666666667 0.04285714285714286 0  0.2222222222222222 0.04285714285714286 0  0.2777777777777778 0.04285714285714286 0  0.3333333333333333 0.04285714285714286 0  0.3888888888888889 0.04285714285714286 0  0.4444444444444444 0.04285714285714286 0  0.5 0.04285714285714286 0  0.5555555555555556 0.04285714285714286 0  0.6111111111111112 0.04285714285714286 0  0.6666666666666666 0.04285714285714286 0  0.7222222222222222 0.04285714285714286 0  0.7777777777777778 0.04285714285714286 0  0.8333333333333334 0.04285714285714286 0  0.8888888888888888 0.04285714285714286 0  0.9444444444444444 0.04285714285714286 0  1 0.04285714285714286 0  0 0.05714285714285715 0  0.05555555555555555 0.05714285714285715 0  0.1111111111111111 0.05714285714285715 0  0.1666666666666667 0.05714285714285715 0  0.2222222222222222 0.05714285714285715 0  0.2777777777777778 0.05714285714285715 0  0.3333333333333333 0.05714285714285715 0  0.3888888888888889 0.05714285714285715 0  0.4444444444444444 0.05714285714285715 0  0.5 0.05714285714285715 0  0.5555555555555556 0.05714285714285715 0  0.6111111111111112 0.05714285714285715 0  0.6666666666666666 0.05714285714285715 0  0.7222222222222222 0.05714285714285715 0  0.7777777777777778 0.05714285714285715 0  0.8333333333333334 0.05714285714285715 0  0.8888888888888888 0.05714285714285715 0  0.9444444444444444 0.05714285714285715 0  1 0.05714285714285715 0  0 0.07142857142857142 0  0.05555555555555555 0.07142857142857142 0  0.1111111111111111 0.07142857142857142 0  0.1666666666666667 0.07142857142857142 0  0.2222222222222222 0.07142857142857142 0  0.2777777777777778 0.07142857142857142 0  0.3333333333333333 0.07142857142857142 0  0.3888888888888889 0.07142857142857142 0  0.4444444444444444 0.07142857142857142 0  0.5 0.07142857142857142 0  0.5555555555555556 0.07142857142857142 0  0.6111111111111112 0.07142857142857142 0  0.6666666666666666 0.07142857142857142 0  0.7222222222222222 0.07142857142857142 0  0.7777777777777778 0.07142857142857142 0  0.8333333333333334 0.07142857142857142 0  0.8888888888888888 0.07142857142857142 0  0.9444444444444444 0.07142857142857142 0  1 0.07142857142857142 0  0 0.08571428571428573 0  0.05555555555555555 0.08571428571428573 0  0.1111111111111111 0.08571428571428573 0  0.1666666666666667 0.08571428571428573 0  0.2222222222222222 0.08571428571428573 0  0.2777777777777778 0.08571428571428573 0  0.3333333333333333 0.08571428571428573 0  0.3888888888888889 0.08571428571428573 0  0.4444444444444444 0.08571428571428573 0  0.5 0.08571428571428573 0  0.5555555555555556 0.08571428571428573 0  0.6111111111111112 0.08571428571428573 0  0.6666666666666666 0.08571428571428573 0  0.7222222222222222 0.08571428571428573 0  0.7777777777777778 0.08571428571428573 0  0.8333333333333334 0.08571428571428573 0  0.8888888888888888 0.08571428571428573 0  0.9444444444444444 0.08571428571428573 0  1 0.08571428571428573 0  0 0.1 0  0.05555555555555555 0.1 0  0.1111111111111111 0.1 0  0.1666666666666667 0.1 0  0.2222222222222222 0.1 0  0.2777777777777778 0.1 0  0.3333333333333333 0.1 0  0.3888888888888889 0.1 0  0.4444444444444444 0.1 0  0.5 0.1 0  0.5555555555555556 0.1 0  0.6111111111111112 0.1 0  0.6666666666666666 0.1 0  0.7222222222222222 0.1 0  0.7777777777777778 0.1 0  0.8333333333333334 0.1 0  0.8888888888888888 0.1 0  0.9444444444444444 0.1 0  1 0.1 0  0 0 0.01  0.05555555555555555 0 0.01  0.1111111111111111 0 0.01  0.1666666666666667 0 0.01  0.2222222222222222 0 0.01  0.2777777777777778 0 0.01  0.3333333333333333 0 0.01  0.3888888888888889 0 0.01  0.4444444444444444 0 0.01  0.5 0 0.01  0.5555555555555556 0 0.01  0.6111111111111112 0 0.01  0.6666666666666666 0 0.01  0.7222222222222222 0 0.01  0.7777777777777778 0 0.01  0.8333333333333334 0 0.01  0.8888888888888888 0 0.01  0.9444444444444444 0 0.01  1 0 0.01  0 0.01428571428571429 0.01  0.05555555555555555 0.01428571428571429 0.01  0.1111111111111111 0.01428571428571429 0.01  0.1666666666666667 0.01428571428571429 0.01  0.2222222222222222 0.01428571428571429 0.01  0.2777777777777778 0.01428571428571429 0.01  0.3333333333333333 0.01428571428571429 0.01  0.3888888888888889 0.01428571428571429 0.01  0.4444444444444444 0.01428571428571429 0.01  0.5 0.01428571428571429 0.01  0.5555555555555556 0.01428571428571429 0.01  0.6111111111111112 0.01428571428571429 0.01  0.6666666666666666 0.01428571428571429 0.01  0.7222222222222222 0.01428571428571429 0.01  0.7777777777777778 0.01428571428571429 0.01  0.8333333333333334 0.01428571428571429 0.01  0.8888888888888888 0.01428571428571429 0.01  0.9444444444444444 0.01428571428571429 0.01  1 0.01428571428571429 0.01  0 0.02857142857142857 0.01  0.05555555555555555 0.02857142857142857 0.01  0.1111111111111111 0.02857142857142857 0.01  0.1666666666666667 0.02857142857142857 0.01  0.2222222222222222 0.02857142857142857 0.01  0.2777777777777778 0.02857142857142857 0.01  0.3333333333333333 0.02857142857142857 0.01  0.3888888888888889 0.02857142857142857 0.01  0.4444444444444444 0.02857142857142857 0.01  0.5 0.02857142857142857 0.01  0.5555555555555556 0.02857142857142857 0.01  0.6111111111111112 0.02857142857142857 0.01  0.6666666666666666 0.02857142857142857 0.01  0.7222222222222222 0.02857142857142857 0.01  0.7777777777777778 0.02857142857142857 0.01  0.8333333333333334 0.02857142857142857 0.01  0.8888888888888888 0.02857142857142857 0.01  0.9444444444444444 0.02857142857142857 0.01  1 0.02857142857142857 0.01  0 0.04285714285714286 0.01  0.05555555555555555 0.04285714285714286 0.01  0.1111111111111111 0.04285714285714286 0.01  0.1666666666666667 0.04285714285714286 0.01  0.2222222222222222 0.04285714285714286 0.01  0.2777777777777778 0.04285714285714286 0.01  0.3333333333333333 0.04285714285714286 0.01  0.3888888888888889 0.04285714285714286 0.01  0.4444444444444444 0.04285714285714286 0.01  0.5 0.04285714285714286 0.01  0.5555555555555556 0.04285714285714286 0.01  0.6111111111111112 0.04285714285714286 0.01  0.6666666666666666 0.04285714285714286 0.01  0.7222222222222222 0.04285714285714286 0.01  0.7777777777777778 0.04285714285714286 0.01  0.8333333333333334 0.04285714285714286 0.01  0.8888888888888888 0.04285714285714286 0.01  0.9444444444444444 0.04285714285714286 0.01  1 0.04285714285714286 0.01  0 0.05714285714285715 0.01  0.05555555555555555 0.05714285714285715 0.01  0.1111111111111111 0.05714285714285715 0.01  0.1666666666666667 0.05714285714285715 0.01  0.2222222222222222 0.05714285714285715 0.01  0.2777777777777778 0.05714285714285715 0.01  0.3333333333333333 0.05714285714285715 0.01  0.3888888888888889 0.05714285714285715 0.01  0.4444444444444444 0.05714285714285715 0.01  0.5 0.05714285714285715 0.01  0.5555555555555556 0.05714285714285715 0.01  0.6111111111111112 0.05714285714285715 0.01  0.6666666666666666 0.05714285714285715 0.01  0.7222222222222222 0.05714285714285715 0.01  0.7777777777777778 0.05714285714285715 0.01  0.8333333333333334 0.05714285714285715 0.01  0.8888888888888888 0.05714285714285715 0.01  0.9444444444444444 0.05714285714285715 0.01  1 0.05714285714285715 0.01  0 0.07142857142857142 0.01  0.05555555555555555 0.07142857142857142 0.01  0.1111111111111111 0.07142857142857142 0.01  0.1666666666666667 0.07142857142857142 0.01  0.2222222222222222 0.07142857142857142 0.01  0.2777777777777778 0.07142857142857142 0.01  0.3333333333333333 0.07142857142857142 0.01  0.3888888888888889 0.07142857142857142 0.01  0.4444444444444444 0.07142857142857142 0.01  0.5 0.07142857142857142 0.01  0.5555555555555556 0.07142857142857142 0.01  0.6111111111111112 0.07142857142857142 0.01  0.6666666666666666 0.07142857142857142 0.01  0.7222222222222222 0.07142857142857142 0.01  0.7777777777777778 0.07142857142857142 0.01  0.8333333333333334 0.07142857142857142 0.01  0.8888888888888888 0.07142857142857142 0.01  
[...]
<PointData  Vectors="f_36"> 
<DataArray  type="Float64"  Name="f_36"  NumberOfComponents="3" format="ascii">0.0000000000000000e+00 0.0000000000000000e+00 0.0000000000000000e+00  -2.4782893486423852e-03 4.7001131020096044e-03 -1.0563844810728458e-02  -3.0866063629280591e-03 9.3361364665873747e-03 -2.4018596441186653e-02  -2.4016570403212396e-03 1.3089298292217529e-02 -3.6625632840127133e-02  -6.8305746633449981e-04 1.4662914266521252e-02 -4.3215900498824643e-02  6.9369290867844920e-04 1.3977478713961747e-02 -4.1249729335134162e-02  5.3707228987285834e-04 1.2865859675440678e-02 -3.6781970171897348e-02  -8.1765732511366573e-05 1.2697093744507018e-02 -3.6722411511377069e-02  -6.9732308105643974e-05 1.2785637650000879e-02 -3.7894003027414337e-02  3.9359389057008182e-05 1.2611691760522206e-02 -3.7455269252113357e-02  -1.0251211543789317e-04 1.2515805393231707e-02 -3.7350484387066271e-02  -1.8213526423879148e-05 1.2440835790437305e-02 -3.7993267711620968e-02  2.0618504809051161e-04 1.2029366599905306e-02 -3.7137469414559511e-02  -4.1747920072678255e-05 1.1736362068836700e-02 -3.5896327116049627e-02  -3.4907737457262741e-04 1.2083462236003822e-02 -3.7348009534793357e-02  -2.5719676338715027e-04 1.2557242259324990e-02 -3.9408832725427369e-02  4.9282912360046548e-05 1.2770966126973588e-02 -4.0532905609924411e-02  6.5252863196292913e-04 1.2838620778702750e-02 -4.0996436207067707e-02  1.4310568909337857e-03 1.3521477302260408e-02 -4.0311748961783078e-02  0.0000000000000000e+00 0.0000000000000000e+00 0.0000000000000000e+00  -2.3596367672033295e-03 3.9685642324075506e-03 -6.4154840706837375e-03  -2.9612071505267096e-03 8.2136800123756657e-03 -1.5657552330121727e-02  -2.3898945171446843e-03 1.1810702045504020e-02 -2.4767153581104297e-02  -8.1587249146395876e-04 1.3478422426217454e-02 -2.9857032564986095e-02  5.9956825676545631e-04 1.2981728740910334e-02 -2.8567629762362910e-02  5.9355418090367674e-04 1.1931059368252008e-02 -2.5157063207447029e-02  -6.0126319937499223e-05 1.1721364401880052e-02 -2.5198435342271085e-02  -1.1422789044428472e-04 1.1814400071875484e-02 -2.6301572059959800e-02  3.1679908578657859e-05 1.1667063302058746e-02 -2.6070002518059368e-02  -8.7239112385205454e-05 1.1573199856849193e-02 -2.6056194750368022e-02  -5.3923107859062012e-05 1.1523354252798428e-02 -2.6752009559373732e-02  1.7668647085406638e-04 1.1163620011178117e-02 -2.6306922145911515e-02  1.0721242075010004e-06 1.0859779095679666e-02 -2.5365923934349846e-02  -3.4131367791235639e-04 1.1145104279235669e-02 -2.6491698967542641e-02  -2.9388119919898675e-04 1.1595577012017621e-02 -2.8145598134601952e-02  -3.8289950930944142e-05 1.1819232811179008e-02 -2.9104924376458584e-02  3.7341971612704622e-04 1.1917251337588071e-02 -2.9682915644099892e-02  1.4457027479693209e-03 1.2918204754680624e-02 -2.9810724500786766e-02  0.0000000000000000e+00 0.0000000000000000e+00 0.0000000000000000e+00  -1.4370657431878773e-03 2.3779206952444670e-03 -2.6535973781678397e-03  -1.8442132010296531e-03 5.1816080144529309e-03 -7.0317132098769910e-03  -1.5293821005754962e-03 7.7214200712184813e-03 -1.1573939933064421e-02  -5.8922661991370163e-04 9.0170666254791362e-03 -1.4321008801313980e-02  3.1201597300843333e-04 8.7479547313791799e-03 -1.3857203795766666e-02  3.5968943225317944e-04 7.9806628003876168e-03 -1.2182781514460088e-02  -6.5471729603445975e-05 7.8150786395233714e-03 -1.2332888121856242e-02  -1.2883494566658373e-04 7.9139450377330098e-03 -1.3114624085504685e-02  -2.7250514704226781e-05 7.8274326504141761e-03 -1.3165183367577606e-02  -9.3928381288119038e-05 7.7653680356619022e-03 -1.3305111052065492e-02  -9.1276497630738969e-05 7.7655981171876887e-03 -1.3884781547298806e-02  5.3525984383792368e-05 7.5431876167716206e-03 -1.3892546545694705e-02  -3.2673334303984239e-05 7.3080396119114509e-03 -1.3544821150460729e-02  -2.6145581788622214e-04 7.4900941539214252e-03 -1.4269482594051064e-02  -2.4994299604290843e-04 7.8229180152750519e-03 -1.5304011821005374e-02  -1.0587302138380625e-04 8.0111031836770791e-03 -1.5985471019068477e-02  3.0308954747945130e-05 8.0743058251663540e-03 -1.6517814069323383e-02  1.4986471031200642e-03 9.4467564721207407e-03 -1.7176380151026842e-02  0.0000000000000000e+00 0.0000000000000000e+00 0.0000000000000000e+00  -1.9647411977853094e-05 1.6005388017771222e-06 -2.9315393657345145e-05  -3.7260253156643935e-05 5.0355405841112740e-06 -1.0961033633789277e-04  -5.2880452655684625e-05 1.0280690404600948e-05 -2.3669761753630818e-04  -6.6547692103466509e-05 1.7096837435271658e-05 -4.0489745765901039e-04  -7.8402928392105867e-05 2.5292711264288645e-05 -6.0888198728802762e-04  -8.8596395300848604e-05 3.4688555493021275e-05 -8.4377712824620671e-04  -9.7257042113156923e-05 4.5118841428812704e-05 -1.1051122269790990e-03  -1.0450264707001707e-04 5.6429335860180357e-05 -1.3887347457596487e-03  -1.1045727727871120e-04 6.8475615031741380e-05 -1.6908256267592809e-03  -1.1524777091106631e-04 8.1125082681546404e-05 -2.0079304228520383e-03  -1.1899880716417980e-04 9.4257715837122545e-05 -2.3369467634153408e-03  -1.2183745297792389e-04 1.0776583142501969e-04 -2.6751201538873712e-03  -1.2389198882774025e-04 1.2155525333651970e-04 -3.0200636859618467e-03  -1.2528449292298946e-04 1.3554528546178368e-04 -3.3697483262221865e-03  -1.2613597533637859e-04 1.4966735079894399e-04 -3.7224721229851395e-03  -1.2657559160911933e-04 1.6386621195313341e-04 -4.0768812654519999e-03  -1.2673975334490635e-04 1.7810249489473128e-04 -4.4320010142353461e-03  -1.2676928106961663e-04 1.9235453621058789e-04 -4.7872522640792234e-03  0.0000000000000000e+00 0.0000000000000000e+00 0.0000000000000000e+00  -1.8516904029666783e-05 2.6541300296172275e-06 -2.9009393528931189e-05  -3.6804452173385020e-05 5.9780334979941990e-06 -1.0916836132502328e-04  -5.3051862234033173e-05 1.1109912022700965e-05 -2.3619873390587037e-04  -6.7278903161223125e-05 1.7816255926825410e-05 -4.0434698659341312e-04  -7.9630316627638233e-05 2.5912223442930173e-05 -6.0828555099966361e-04  -9.0262015917925341e-05 3.5216664402546146e-05 -8.4314091206565730e-04  -9.9308915692864191e-05 4.5562036860052318e-05 -1.1044419091044506e-03  -1.0689090598069658e-04 5.6794445745348481e-05 -1.3880347553324843e-03  -1.1313389192586166e-04 6.8770209354305383e-05 -1.6900999722839398e-03  -1.1816828347581704e-04 8.1356507657467467e-05 -2.0071829242961792e-03  -1.2212205098978223e-04 9.4433279811928844e-05 -2.3361807414264803e-03  -1.2512495638735994e-04 1.0789322215332371e-04 -2.6743384889867951e-03  -1.2730915767589489e-04 1.2164182962340471e-04 -3.0192689596568604e-03  -1.2880101527887447e-04 1.3559780974557238e-04 -3.3689427234292976e-03  -1.2972408662560066e-04 1.4969309251934259e-04 -3.7216573408726510e-03  -1.3021021293469607e-04 1.6387315740152081e-04 -4.0760586626898132e-03  -1.3039942261528661e-04 1.7809884671154247e-04 -4.4311713580214903e-03  -1.3043657651332752e-04 1.9234710392574558e-04 -4.7864152015899119e-03  0.0000000000000000e+00 0.0000000000000000e+00 0.0000000000000000e+00  -1.5990881594350425e-03 -2.6400624809540239e-03 -3.9747076446833562e-03  -1.8478876949943237e-03 -5.6309047315705532e-03 -8.9640756200017619e-03  -1.4007798053103297e-03 -8.3834184163210576e-03 -1.3543177913421123e-02  -4.0676578856006887e-04 -9.8914329352024887e-03 -1.5831253738029342e-02  3.6955848457143628e-04 -9.7272609797285151e-03 -1.4887129353130083e-02  2.5619624218572404e-04 -8.8805680200104969e-03 -1.3259482307082049e-02  -1.2600659554972053e-04 -8.6088735253783358e-03 -1.3639685595471027e-02  -1.3083989751715321e-04 -8.6847938174642210e-03 -1.4348590705833861e-02  -6.1825360648573612e-05 -8.5794437965539157e-03 -1.4336845133479433e-02  -1.3745249543346889e-04 -8.4516613136049190e-03 -1.4518956353202257e-02  -1.0438865102464561e-04 -8.4222243283393061e-03 -1.5053643544546639e-02  4.1159201683079082e-05 -8.2261711621065374e-03 -1.5015551310592202e-02  -6.1322242193279748e-05 -7.9069442655972724e-03 -1.4662716702296309e-02  -2.6221283147812198e-04 -7.9145850928366412e-03 -1.5334825777684342e-02  -2.6211974640713239e-04 -8.1657150611059558e-03 -1.6306925522371653e-02  -1.3355238055642814e-04 -8.3979868974402051e-03 -1.7006441023514052e-02  1.2367821126385562e-04 -8.6740360208662198e-03 -1.7469563627055932e-02  1.0059223366901588e-03 -9.8524521199499174e-03 -1.7206551444936078e-02  0.0000000000000000e+00 0.0000000000000000e+00 0.0000000000000000e+00  -2.5119778311662451e-03 -3.4232048921495365e-03 -7.8496897971685430e-03  -2.9669288860683040e-03 -7.5975599629032305e-03 -1.7572401115491774e-02  -2.2792149753063746e-03 -1.1508017106824016e-02 -2.6502676641703367e-02  -6.9101938028773963e-04 -1.3800284679971072e-02 -3.1082839582084319e-02  6.3530970979972586e-04 -1.3784037296106980e-02 -2.9444538927185761e-02  5.2465276342943254e-04 -1.2659576433385569e-02 -2.6119523610721118e-02  -1.3590758646508231e-04 -1.2196698581518794e-02 -2.6349557455902509e-02  -1.6736762393127055e-04 -1.2265046581392222e-02 -2.7389323130396721e-02  -2.6077906761176261e-05 -1.2133377338536477e-02 -2.7120241791293506e-02  -1.4128870595172201e-04 -1.1942456891094199e-02 -2.7098867600487072e-02  -1.1065297185790119e-04 -1.1886820040595793e-02 -2.7737509338711976e-02  1.3508828931306090e-04 -1.1639535677177784e-02 -2.7393394373717947e-02  4.1309914866136209e-06 -1.1199959592166759e-02 -2.6392747357935092e-02  -3.4055883598813449e-04 -1.1157890205223189e-02 -2.7219532983982910e-02  -3.4449345826179941e-04 -1.1474619312206367e-02 -2.8711692299744372e-02  -1.0613498049193898e-04 -1.1820083793132787e-02 -2.9745851196315690e-02  3.1273237455266658e-04 -1.2293642387984893e-02 -3.0354759267824792e-02  9.6491287613894206e-04 -1.4131330572355371e-02 -2.9794796105463185e-02  0.0000000000000000e+00 0.0000000000000000e+00 0.0000000000000000e+00  -2.5142136229994983e-03 -3.3312904301037679e-03 -1.0880953242861310e-02  -3.0912309872059944e-03 -7.7817178331637338e-03 -2.4284139908728988e-02  -2.4850375648160124e-03 -1.2015433126777317e-02 -3.6668676546986252e-02  -8.8592670800675814e-04 -1.4617532597151610e-02 -4.3299332076719911e-02  6.3308945934723146e-04 -1.4761038928075756e-02 -4.1635958629885013e-02  6.5969522159181366e-04 -1.3606083366859001e-02 -3.7241007370441406e-02  -1.2649155743964930e-04 -1.3067090849300729e-02 -3.7097237043259457e-02  -2.2158876546388238e-04 -1.3115016080932561e-02 -3.8265710197779475e-02  -2.1874947998629725e-05 -1.2981136777668812e-02 -3.7875195049003385e-02  -1.3366503744287881e-04 -1.2773551749206925e-02 -3.7672897158093528e-02  -1.5206222157913241e-04 -1.2711308811840145e-02 -3.8292633853216768e-02  1.2207998690588864e-04 -1.2462536039119293e-02 -3.7764476203104698e-02  5.8559926811315553e-05 -1.1991178693458825e-02 -3.6350013707679325e-02  -3.4065418905036214e-04 -1.1916810766574843e-02 -3.7169794440154474e-02  -3.6265862115566707e-04 -1.2235527219621962e-02 -3.8989994127208362e-02  -6.7776502142862199e-05 -1.2623458063955529e-02 -4.0319590580507346e-02  5.1522383263651517e-04 -1.3138974151060056e-02 -4.1199201069292972e-02  1.0850441554783011e-03 -1.5233427163532999e-02 -4.1241505249735244e-02  0.0000000000000000e+00 0.0000000000000000e+00 0.0000000000000000e+00  -1.0046200953668575e-03 1.8229317265735553e-03 -1.0162514491521689e-02  -1.3872257808925485e-03 3.8771023044353024e-03 -2.3563734642398658e-02  -1.1606191904797345e-03 5.5849412656552569e-03 -3.6173959033107647e-02  -4.2707724376555195e-04 6.3677708542508081e-03 -4.2850994977039494e-02  2.6370696870457613e-04 6.1039088897932806e-03 -4.0945020285173848e-02  2.9807166672683256e-04 5.5763934196460122e-03 -3.6432880301753887e-02  1.9619772063829857e-05 5.4837939988190447e-03 -3.6334098673488732e-02  -2.2563633558001462e-05 5.5499230680204842e-03 -3.7532595578832623e-02  2.5674992400069537e-05 5.4857728400716293e-03 -3.7105974039969805e-02  -3.5223454076397330e-05 5.4469184909918611e-03 -3.6989395934130503e-02  -2.6028127496274259e-05 5.4398265525495157e-03 -3.7650654886080721e-02  7.5930518222165456e-05 5.2706518880467849e-03 -3.6818877997843065e-02  9.7432518439769689e-06 5.1163117575145625e-03 -3.5550945230842297e-02  -9.8125533317076577e-05 5.2670320451289844e-03 -3.6973109506868239e-02  -3.6769587713866451e-05 5.5011685948080881e-03 -3.9040731549346473e-02  1.7156871744827837e-04 5.6260816429789633e-03 -4.0175915303799374e-02  6.4181831744005368e-04 5.7960031053179775e-03 -4.0639146728320905e-02  1.2856033245535893e-03 6.5719738944946069e-03 -3.9954853229125828e-02  0.0000000000000000e+00 0.0000000000000000e+00 0.0000000000000000e+00  -1.0782024457638545e-03 1.6045359036677550e-03 -6.1270478231957373e-03  -1.4447682498170591e-03 3.3915668915294774e-03 -1.5303521776346885e-02  -1.2163904847038616e-03 4.9266688863287000e-03 -2.4389606869156914e-02  -4.8193270660060639e-04 5.6680835691064572e-03 -2.9524215025352497e-02  2.4961105605732318e-04 5.4875880872862284e-03 -2.8265047499021038e-02  3.2866904526672106e-04 5.0385981900684315e-03 -2.4805779099007292e-02  2.3451930686647862e-05 4.9395984311899266e-03 -2.4815490062980207e-02  -4.3102930628147151e-05 4.9903850839974947e-03 -2.5951153567187562e-02  2.0847881151640414e-05 4.9391798415460951e-03 -2.5732873824632595e-02  -3.1031703072458171e-05 4.9044536278653834e-03 -2.5706158626524610e-02  -3.3399883160737687e-05 4.8968421693069151e-03 -2.6417318943820892e-02  7.4373919059850360e-05 4.7544641065020796e-03 -2.5996690869832771e-02  2.1291856214353686e-05 4.6170943895254999e-03 -2.5035835343113398e-02  -1.1555310598473093e-04 4.7376142022722331e-03 -2.6139673683403530e-02  -7.6728725483556125e-05 4.9421326410435881e-03 -2.7803169862562264e-02  9.1830243761357596e-05 5.0495462726969260e-03 -2.8769618520315229e-02  4.0557459849210865e-04 5.1702172586093435e-03 -2.9354260844673085e-02  1.2024090088133738e-03 5.9993121892402664e-03 -2.9569892550120287e-02  0.0000000000000000e+00 0.0000000000000000e+00 0.0000000000000000e+00  -7.1109350136769182e-04 9.7206682555322447e-04 -2.3105205358100135e-03  -9.4984710996160035e-04 2.0678997116880446e-03 -6.4531201499181271e-03  -8.0934783000531662e-04 3.0480936552205432e-03 -1.0812388297238641e-02  -3.4483335603830405e-04 3.5486373962587839e-03 -1.3492701936615271e-02  1.3516322100169429e-04 3.4654388309437946e-03 -1.3037432380314008e-02  2.0549190599138752e-04 3.1914495672904259e-03 -1.1359438725925319e-02  7.8574707481013284e-07 3.1263173099275866e-03 -1.1505914838411029e-02  -5.5731401076386755e-05 3.1610490664089243e-03 -1.2316307064955241e-02  -1.0393355521723816e-05 3.1352815225069147e-03 -1.2383434744921224e-02  -3.9183546557695540e-05 3.1178697038635314e-03 -1.2520393482463565e-02  -4.6146138805951754e-05 3.1198460542787793e-03 -1.3116095217814526e-02  2.3472856242837197e-05 3.0397500476680569e-03 -1.3154831424720893e-02  -4.3395995390814905e-06 2.9560054540373024e-03 -1.2807434334698456e-02  -1.0341444999034426e-04 3.0302597279500357e-03 -1.3512833197663231e-02  -8.9962874965501314e-05 3.1637123381259508e-03 -1.4540753637264873e-02  2.2092803269321159e-06 3.2407011911456097e-03 -1.5218500977483243e-02  1.1535721539467073e-04 3.2874779790848453e-03 -1.5748647971478506e-02  1.0581420929847683e-03 4.0118936293018657e-03 -1.6429906425168398e-02  0.0000000000000000e+00 0.0000000000000000e+00 0.0000000000000000e+00  -9.2598742992065059e-06 1.4816710749766318e-06 -2.8500175910312360e-05  -1.8104266850973869e-05 4.8781317964982947e-06 -1.0887062467483950e-04  -2.5883120903147888e-05 1.0061281869341984e-05 -2.3604110463705679e-04  -3.2690197769762928e-05 1.6823505754056525e-05 -4.0432322789970171e-04  -3.8597023033615471e-05 2.4971135970983393e-05 -6.0838425720675731e-04  -4.3678678060674765e-05 3.4324587983813133e-05 -8.4334980890482156e-04  -4.8000135195830355e-05 4.4717326386589114e-05 -1.1047498742255176e-03  -5.1619679868668655e-05 5.5994446089603854e-05 -1.3884321952951223e-03  -5.4598165083824494e-05 6.8011474527311498e-05 -1.6905775146041817e-03  -5.6998266613848849e-05 8.0635570724146575e-05 -2.0077313288032559e-03  -5.8881597797750145e-05 9.3746338560773620e-05 -2.3367913199997901e-03  -6.0310622705751123e-05 1.0723593812519672e-04 -2.6750029031912276e-03  -6.1348701338732433e-05 1.2100988171296599e-04 -3.0199791641395335e-03  -6.2056487231505606e-05 1.3498696597906567e-04 -3.3696912666261155e-03  -6.2493617435292523e-05 1.4909844817230608e-04 -3.7224372249229027e-03  -6.2723410253200134e-05 1.6328904989660836e-04 -4.0768629034471102e-03  -6.2812739979016695e-05 1.7751915198997329e-04 -4.4319932203352678e-03  -6.2829652903176569e-05 1.9176576767175331e-04 -4.7872465051812261e-03  0.0000000000000000e+00 0.0000000000000000e+00 0.0000000000000000e+00  -9.3604414885931525e-06 2.2514176991052982e-06 -2.8031611906774335e-05  -1.8813226320306962e-05 5.5022625746589415e-06 -1.0835358860290686e-04  -2.7072234364622697e-05 1.0605936810428754e-05 -2.3547750360245430e-04  -3.4305722171127475e-05 1.7296678461809393e-05 -4.0371533534997730e-04  -4.0587167892897281e-05 2.5379279742788997e-05 -6.0773686386465776e-04  -4.5995470087796586e-05 3.4673263057990977e-05 -8.4266845626280312e-04  -5.0599518891779778e-05 4.5011004786791243e-05 -1.1040396759891215e-03  -5.4460322031823148e-05 5.6237525254639639e-05 -1.3876973440616253e-03  -5.7641280460242255e-05 6.8208702578054404e-05 -1.6898217915112706e-03  -6.0208260489736372e-05 8.0791674491170618e-05 -2.0069582057131367e-03  -6.2226137483818475e-05 9.3866004190448998e-05 -2.3360038141138043e-03  -6.3760532218019194e-05 1.0732400691342600e-04 -2.6742036325735782e-03  -6.4878314404131593e-05 1.2107109252121682e-04 -3.0191703367846313e-03  -6.5643736682725518e-05 1.3502577678275727e-04 -3.3688746758062434e-03  -6.6119604392996109e-05 1.4911949860677202e-04 -3.7216143330278104e-03  -6.6372664823979215e-05 1.6329735447967916e-04 -4.0760348630461051e-03  -6.6473737015948961e-05 1.7751979945582964e-04 -4.4311606493563855e-03  -6.6495071566236870e-05 1.9176295406064404e-04 -4.7864104154117801e-03  0.0000000000000000e+00 0.0000000000000000e+00 0.0000000000000000e+00  -8.0016317101907119e-04 -9.4336692646417399e-04 -3.5082463179937854e-03  -9.7642248924441582e-04 -1.9792101781220183e-03 -7.9703988133475907e-03  -7.8824284453261244e-04 -2.9504672965337203e-03 -1.2027898493813883e-02  -2.9345125948995233e-04 -3.4913275872403278e-03 -1.3983099317552372e-02  1.6018428370429599e-04 -3.4435886187331069e-03 -1.2970272229961870e-02  1.6880330237090975e-04 -3.1412158573117365e-03 -1.1425423010524698e-02  -4.3960255746091770e-05 -3.0292585128258950e-03 -1.1879034040648235e-02  -8.2064360414921031e-05 -3.0413669128919619e-03 -1.2611147597809274e-02  -4.1260512839474718e-05 -2.9948044222444701e-03 -1.2610395921582532e-02  -7.4822150008329281e-05 -2.9377295945884124e-03 -1.2807676270785313e-02  -7.2883820768054880e-05 -2.9140740557003085e-03 -1.3359453795925196e-02  5.3078593370860211e-06 -2.8372215711760301e-03 -1.3354574891747966e-02  -2.0885569643047214e-05 -2.7145599617848905e-03 -1.3041329737767230e-02  -1.2061314078077296e-04 -2.6969667258519860e-03 -1.3723631256695179e-02  -1.1929002689042274e-04 -2.7642318663363002e-03 -1.4667896821518750e-02  -3.4563193934706369e-05 -2.8394523775548421e-03 -1.5320736702038016e-02  1.0426373943874003e-04 -2.9770917975363957e-03 -1.5711658141564014e-02  7.7320827427228842e-04 -3.4960584729343495e-03 -1.5004266320093948e-02  0.0000000000000000e+00 0.0000000000000000e+00 0.0000000000000000e+00  -1.1470415843250054e-03 -1.4997199460072019e-03 -7.5572887362184912e-03  -1.4674733188975136e-03 -3.3712222655114259e-03 -1.7118387858354289e-02  -1.1951767502041441e-03 -5.1469551034763993e-03 -2.5851453692487987e-02  -4.5099034730756559e-04 -6.2106993915793133e-03 -3.0303407498401054e-02  2.6306812123038503e-04 -6.2295231785232516e-03 -2.8602232184431042e-02  3.0074047250829174e-04 -5.7217032640762000e-03 -2.5243790036678853e-02  -3.9259044256189789e-05 -5.4937785536345683e-03 -2.5491300137769339e-02  -1.0897782033618374e-04 -5.5079129999373094e-03 -2.6576046999271838e-02  -3.7343689499704298e-05 -5.4404604433305193e-03 -2.6319595084161429e-02  -8.5855956161764671e-05 -5.3446670392