<?xml version="1.0"?>
<VTKFile type="UnstructuredGrid"  version="0.1"  >
<UnstructuredGrid>
<Piece  NumberOfPoints="760" NumberOfCells="3024">
<Points>
<DataArray  type="Float64"  NumberOfComponents="3"  format="ascii">0 0 0  0.05555555555555555 0 0  0.1111111111111111 0 0  0.1666666666666667 0 0  0.2222222222222222 0 0  0.2777777777777778 0 0  0.3333333333333333 0 0  0.3888888888888889 0 0  0.4444444444444444 0 0  0.5 0 0  0.5555555555555556 0 0  0.6111111111111112 0 0  0.6666666666666666 0 0  0.7222222222222222 0 0  0.7777777777777778 0 0  0.8333333333333334 0 0  0.8888888888888888 0 0  0.9444444444444444 0 0  1 0 0  0 0.01428571428571429 0  0.05555555555555555 0.01428571428571429 0  0.1111111111111111 0.01428571428571429 0  0.1666666666666667 0.01428571428571429 0  0.2222222222222222 0.01428571428571429 0  0.2777777777777778 0.01428571428571429 0  0.3333333333333333 0.01428571428571429 0  0.3888888888888889 0.01428571428571429 0  0.4444444444444444 0.01428571428571429 0  0.5 0.01428571428571429 0  0.5555555555555556 0.01428571428571429 0  0.6111111111111112 0.01428571428571429 0  0.6666666666666666 0.01428571428571429 0  0.7222222222222222 0.01428571428571429 0  0.7777777777777778 0.01428571428571429 0  0.8333333333333334 0.01428571428571429 0  0.8888888888888888 0.01428571428571429 0  0.9444444444444444 0.01428571428571429 0  1 0.01428571428571429 0  0 0.02857142857142857 0  0.05555555555555555 0.02857142857142857 0  0.1111111111111111 0.02857142857142857 0  0.1666666666666667 0.02857142857142857 0  0.2222222222222222 0.02857142857142857 0  0.2777777777777778 0.02857142857142857 0  0.3333333333333333 0.02857142857142857 0  0.3888888888888889 0.02857142857142857 0  0.4444444444444444 0.02857142857142857 0  0.5 0.02857142857142857 0  0.5555555555555556 0.02857142857142857 0  0.6111111111111112 0.02857142857142857 0  0.6666666666666666 0.02857142857142857 0  0.7222222222222222 0.02857142857142857 0  0.7777777777777778 0.02857142857142857 0  0.8333333333333334 0.02857142857142857 0  0.8888888888888888 0.02857142857142857 0  0.9444444444444444 0.02857142857142857 0  1 0.02857142857142857 0  0 0.04285714285714286 0  0.05555555555555555 0.04285714285714286 0  0.1111111111111111 0.04285714285714286 0  0.1666666666666667 0.04285714285714286 0  0.2222222222222222 0.04285714285714286 0  0.2777777777777778 0.04285714285714286 0  0.3333333333333333 0.04285714285714286 0  0.3888888888888889 0.04285714285714286 0  0.4444444444444444 0.04285714285714286 0  0.5 0.04285714285714286 0  0.5555555555555556 0.04285714285714286 0  0.6111111111111112 0.04285714285714286 0  0.6666666666666666 0.04285714285714286 0  0.7222222222222222 0.04285714285714286 0  0.7777777777777778 0.04285714285714286 0  0.8333333333333334 0.04285714285714286 0  0.8888888888888888 0.04285714285714286 0  0.9444444444444444 0.04285714285714286 0  1 0.04285714285714286 0  0 0.05714285714285715 0  0.05555555555555555 0.05714285714285715 0  0.1111111111111111 0.05714285714285715 0  0.1666666666666667 0.05714285714285715 0  0.2222222222222222 0.05714285714285715 0  0.2777777777777778 0.05714285714285715 0  0.3333333333333333 0.05714285714285715 0  0.3888888888888889 0.05714285714285715 0  0.4444444444444444 0.05714285714285715 0  0.5 0.05714285714285715 0  0.5555555555555556 0.05714285714285715 0  0.6111111111111112 0.05714285714285715 0  0.6666666666666666 0.05714285714285715 0  0.7222222222222222 0.05714285714285715 0  0.7777777777777778 0.05714285714285715 0  0.8333333333333334 0.05714285714285715 0  0.8888888888888888 0.05714285714285715 0  0.9444444444444444 0.05714285714285715 0  1 0.05714285714285715 0  0 0.07142857142857142 0  0.05555555555555555 0.07142857142857142 0  0.1111111111111111 0.07142857142857142 0  0.1666666666666667 0.07142857142857142 0  0.2222222222222222 0.07142857142857142 0  0.2777777777777778 0.07142857142857142 0  0.3333333333333333 0.07142857142857142 0  0.3888888888888889 0.07142857142857142 0  0.4444444444444444 0.07142857142857142 0  0.5 0.07142857142857142 0  0.5555555555555556 0.07142857142857142 0  0.6111111111111112 0.07142857142857142 0  0.6666666666666666 0.07142857142857142 0  0.7222222222222222 0.07142857142857142 0  0.7777777777777778 0.07142857142857142 0  0.8333333333333334 0.07142857142857142 0  0.8888888888888888 0.07142857142857142 0  0.9444444444444444 0.07142857142857142 0  1 0.07142857142857142 0  0 0.08571428571428573 0  0.05555555555555555 0.08571428571428573 0  0.1111111111111111 0.08571428571428573 0  0.1666666666666667 0.08571428571428573 0  0.2222222222222222 0.08571428571428573 0  0.2777777777777778 0.08571428571428573 0  0.3333333333333333 0.08571428571428573 0  0.3888888888888889 0.08571428571428573 0  0.4444444444444444 0.08571428571428573 0  0.5 0.08571428571428573 0  0.5555555555555556 0.08571428571428573 0  0.6111111111111112 0.08571428571428573 0  0.6666666666666666 0.08571428571428573 0  0.7222222222222222 0.08571428571428573 0  0.7777777777777778 0.08571428571428573 0  0.8333333333333334 0.08571428571428573 0  0.8888888888888888 0.08571428571428573 0  0.9444444444444444 0.08571428571428573 0  1 0.08571428571428573 0  0 0.1 0  0.05555555555555555 0.1 0  0.1111111111111111 0.1 0  0.1666666666666667 0.1 0  0.2222222222222222 0.1 0  0.2777777777777778 0.1 0  0.3333333333333333 0.1 0  0.3888888888888889 0.1 0  0.4444444444444444 0.1 0  0.5 0.1 0  0.5555555555555556 0.1 0  0.6111111111111112 0.1 0  0.6666666666666666 0.1 0  0.7222222222222222 0.1 0  0.7777777777777778 0.1 0  0.8333333333333334 0.1 0  0.8888888888888888 0.1 0  0.9444444444444444 0.1 0  1 0.1 0  0 0 0.01  0.05555555555555555 0 0.01  0.1111111111111111 0 0.01  0.1666666666666667 0 0.01  0.2222222222222222 0 0.01  0.2777777777777778 0 0.01  0.3333333333333333 0 0.01  0.3888888888888889 0 0.01  0.4444444444444444 0 0.01  0.5 0 0.01  0.5555555555555556 0 0.01  0.6111111111111112 0 0.01  0.6666666666666666 0 0.01  0.7222222222222222 0 0.01  0.7777777777777778 0 0.01  0.8333333333333334 0 0.01  0.8888888888888888 0 0.01  0.9444444444444444 0 0.01  1 0 0.01  0 0.01428571428571429 0.01  0.05555555555555555 0.01428571428571429 0.01  0.1111111111111111 0.01428571428571429 0.01  0.1666666666666667 0.01428571428571429 0.01  0.2222222222222222 0.01428571428571429 0.01  0.2777777777777778 0.01428571428571429 0.01  0.3333333333333333 0.01428571428571429 0.01  0.3888888888888889 0.01428571428571429 0.01  0.4444444444444444 0.01428571428571429 0.01  0.5 0.01428571428571429 0.01  0.5555555555555556 0.01428571428571429 0.01  0.6111111111111112 0.01428571428571429 0.01  0.6666666666666666 0.01428571428571429 0.01  0.7222222222222222 0.01428571428571429 0.01  0.7777777777777778 0.01428571428571429 0.01  0.8333333333333334 0.01428571428571429 0.01  0.8888888888888888 0.01428571428571429 0.01  0.9444444444444444 0.01428571428571429 0.01  1 0.01428571428571429 0.01  0 0.02857142857142857 0.01  0.05555555555555555 0.02857142857142857 0.01  0.1111111111111111 0.02857142857142857 0.01  0.1666666666666667 0.02857142857142857 0.01  0.2222222222222222 0.02857142857142857 0.01  0.2777777777777778 0.02857142857142857 0.01  0.3333333333333333 0.02857142857142857 0.01  0.3888888888888889 0.02857142857142857 0.01  0.4444444444444444 0.02857142857142857 0.01  0.5 0.02857142857142857 0.01  0.5555555555555556 0.02857142857142857 0.01  0.6111111111111112 0.02857142857142857 0.01  0.6666666666666666 0.02857142857142857 0.01  0.7222222222222222 0.02857142857142857 0.01  0.7777777777777778 0.02857142857142857 0.01  0.8333333333333334 0.02857142857142857 0.01  0.8888888888888888 0.02857142857142857 0.01  0.9444444444444444 0.02857142857142857 0.01  1 0.02857142857142857 0.01  0 0.04285714285714286 0.01  0.05555555555555555 0.04285714285714286 0.01  0.1111111111111111 0.04285714285714286 0.01  0.1666666666666667 0.04285714285714286 0.01  0.2222222222222222 0.04285714285714286 0.01  0.2777777777777778 0.04285714285714286 0.01  0.3333333333333333 0.04285714285714286 0.01  0.3888888888888889 0.04285714285714286 0.01  0.4444444444444444 0.04285714285714286 0.01  0.5 0.04285714285714286 0.01  0.5555555555555556 0.04285714285714286 0.01  0.6111111111111112 0.04285714285714286 0.01  0.6666666666666666 0.04285714285714286 0.01  0.7222222222222222 0.04285714285714286 0.01  0.7777777777777778 0.04285714285714286 0.01  0.8333333333333334 0.04285714285714286 0.01  0.8888888888888888 0.04285714285714286 0.01  0.9444444444444444 0.04285714285714286 0.01  1 0.04285714285714286 0.01  0 0.05714285714285715 0.01  0.05555555555555555 0.05714285714285715 0.01  0.1111111111111111 0.05714285714285715 0.01  0.1666666666666667 0.05714285714285715 0.01  0.2222222222222222 0.05714285714285715 0.01  0.2777777777777778 0.05714285714285715 0.01  0.3333333333333333 0.05714285714285715 0.01  0.3888888888888889 0.05714285714285715 0.01  0.4444444444444444 0.05714285714285715 0.01  0.5 0.05714285714285715 0.01  0.5555555555555556 0.05714285714285715 0.01  0.6111111111111112 0.05714285714285715 0.01  0.6666666666666666 0.05714285714285715 0.01  0.7222222222222222 0.05714285714285715 0.01  0.7777777777777778 0.05714285714285715 0.01  0.8333333333333334 0.05714285714285715 0.01  0.8888888888888888 0.05714285714285715 0.01  0.9444444444444444 0.05714285714285715 0.01  1 0.05714285714285715 0.01  0 0.07142857142857142 0.01  0.05555555555555555 0.07142857142857142 0.01  0.1111111111111111 0.07142857142857142 0.01  0.1666666666666667 0.07142857142857142 0.01  0.2222222222222222 0.07142857142857142 0.01  0.2777777777777778 0.07142857142857142 0.01  0.3333333333333333 0.07142857142857142 0.01  0.3888888888888889 0.07142857142857142 0.01  0.4444444444444444 0.07142857142857142 0.01  0.5 0.07142857142857142 0.01  0.5555555555555556 0.07142857142857142 0.01  0.6111111111111112 0.07142857142857142 0.01  0.6666666666666666 0.07142857142857142 0.01  0.7222222222222222 0.07142857142857142 0.01  0.7777777777777778 0.07142857142857142 0.01  0.8333333333333334 0.07142857142857142 0.01  0.8888888888888888 0.07142857142857142 0.01  
[...]
<PointData  Vectors="f_36"> 
<DataArray  type="Float64"  Name="f_36"  NumberOfComponents="3" format="ascii">0.0000000000000000e+00 0.0000000000000000e+00 0.0000000000000000e+00  3.5644494903141117e-03 -7.7471388139509828e-03 2.0184213212398588e-02  1.9624905749034667e-03 -1.2272322030019673e-02 3.6381080325134825e-02  -1.0058741564951926e-04 -1.2904105231707841e-02 3.8206782421656142e-02  -3.0023283206044175e-04 -1.2335477875971442e-02 3.5489047753730733e-02  -8.6371398203707445e-06 -1.2197480525690358e-02 3.5482753167374252e-02  1.1856991733006809e-05 -1.2143163471105303e-02 3.5517334659931094e-02  1.1584223548884683e-05 -1.2037037078643084e-02 3.5397029799342151e-02  1.9019768398864054e-05 -1.1929927058716509e-02 3.5367342178891446e-02  1.8809203977865691e-05 -1.1821710322034914e-02 3.5313430696977517e-02  2.2861169778235755e-05 -1.1708272172187301e-02 3.5262417659464217e-02  1.0493224904229481e-05 -1.1584200487617460e-02 3.5217380567660252e-02  2.7573908138270941e-05 -1.1469603296100134e-02 3.5114376999465485e-02  5.7785535372747142e-05 -1.1379824866362910e-02 3.5205501315128215e-02  -9.8384693312455785e-05 -1.1135167036730238e-02 3.5024024305369515e-02  1.6982410664612914e-04 -1.0961250217804202e-02 3.3802347907780188e-02  6.4552789559215546e-04 -1.1655985161570136e-02 3.6030464656371580e-02  -3.7630358907652232e-05 -1.2594410645566562e-02 4.0064116014426374e-02  -1.1278242670465708e-03 -1.3487146527272049e-02 4.0080816341535000e-02  0.0000000000000000e+00 0.0000000000000000e+00 0.0000000000000000e+00  3.5581564030778010e-03 -6.7135070780673300e-03 1.3207304870928522e-02  2.1878641443029349e-03 -1.1112295632263902e-02 2.5191585546574507e-02  2.5711841223793643e-06 -1.1935135196022283e-02 2.6509585939993714e-02  -3.4651715649139402e-04 -1.1436826619329975e-02 2.4285060261531159e-02  1.8079553064673510e-06 -1.1283975572830526e-02 2.4374351339272012e-02  2.9909238648988217e-05 -1.1234104981793272e-02 2.4520422668671920e-02  2.0770315812994757e-05 -1.1138126330480247e-02 2.4519003579795917e-02  3.1611688843651180e-05 -1.1041647924960877e-02 2.4608924192782527e-02  3.1940043406371781e-05 -1.0944039348569922e-02 2.4685041634095978e-02  3.5531120206999495e-05 -1.0841679149132489e-02 2.4766871642322514e-02  2.8607930080087344e-05 -1.0730230979696569e-02 2.4862733870399306e-02  3.8500295295360342e-05 -1.0625123756860118e-02 2.4908976518436689e-02  6.6783212035791906e-05 -1.0544233795917847e-02 2.5102835394510695e-02  -5.8720630927794432e-05 -1.0326877490893763e-02 2.5154814764746052e-02  1.1875337996661018e-04 -1.0127890799940305e-02 2.4188751000856518e-02  6.3946102241917884e-04 -1.0716288743885348e-02 2.5802922656621520e-02  2.6596706167012618e-04 -1.1631493925136099e-02 2.9135902991178290e-02  -1.1429665297106504e-03 -1.2845490140576227e-02 2.9760682875108795e-02  0.0000000000000000e+00 0.0000000000000000e+00 0.0000000000000000e+00  2.2123898138350813e-03 -4.2567716291505003e-03 5.8831570546789185e-03  1.4752314092262818e-03 -7.3832908417147533e-03 1.2010324439925007e-02  6.3505014556808391e-05 -8.0597901948384117e-03 1.2769399492291706e-02  -2.1416305842354176e-04 -7.6886972421023646e-03 1.1616958673548155e-02  3.2069801464141690e-05 -7.5685959582438818e-03 1.1779903769598506e-02  6.0837581688356872e-05 -7.5431736389258005e-03 1.2002465363085723e-02  5.3908913415080809e-05 -7.4857435183215068e-03 1.2140346677505902e-02  6.4859068370620089e-05 -7.4300997484365765e-03 1.2346381547397050e-02  6.7837445316308860e-05 -7.3736705526982584e-03 1.2555071091256462e-02  7.1457157301249409e-05 -7.3144914185490160e-03 1.2773172149797491e-02  7.0847081365667345e-05 -7.2503071405504490e-03 1.3007665008815578e-02  7.6226636730422658e-05 -7.1876626619035806e-03 1.3219886578033127e-02  9.1580444463951172e-05 -7.1445012636495381e-03 1.3506218953888547e-02  2.3472217104813099e-05 -7.0112929650337106e-03 1.3757003754323420e-02  1.0994019889554043e-04 -6.8375890516030116e-03 1.3383055881002595e-02  4.5145877981859036e-04 -7.2209540922403949e-03 1.4301041867114790e-02  3.7570264699069697e-04 -7.8812381511697283e-03 1.6279255636004176e-02  -1.3081937080712442e-03 -9.4136097429165285e-03 1.7205440874870373e-02  0.0000000000000000e+00 0.0000000000000000e+00 0.0000000000000000e+00  1.8792211916117825e-05 -1.4973850792726155e-06 2.8123665100983658e-05  3.5567554980541666e-05 -4.7081198704523200e-06 1.0484305212561539e-04  5.0424464854166774e-05 -9.6327854217432230e-06 2.2602475384592304e-04  6.3442571758717676e-05 -1.6067320421952545e-05 3.8631942118754820e-04  7.4747129679982553e-05 -2.3854321187397200e-05 5.8075367214638330e-04  8.4457710286073157e-05 -3.2839908586477494e-05 8.0467725049268070e-04  9.2695333209331660e-05 -4.2873705815387752e-05 1.0537759420972200e-03  9.9581320341277858e-05 -5.3811629780275371e-05 1.3240758351889437e-03  1.0523684838612593e-04 -6.5516740899940562e-05 1.6119415329786571e-03  1.0978320647695110e-04 -7.7859793993246721e-05 1.9140773397862353e-03  1.1334169717036462e-04 -9.0720437993661317e-05 2.2275276460278284e-03  1.1603372737011010e-04 -1.0398832834048082e-04 2.5496773424617401e-03  1.1798057939331625e-04 -1.1756397786288516e-04 2.8782526517994993e-03  1.1930381969948523e-04 -1.3136012277998045e-04 3.2113203061037952e-03  1.2012582175381585e-04 -1.4530361467632126e-04 3.5472916854589085e-03  1.2056339710285673e-04 -1.5933525131344486e-04 3.8849256064114341e-03  1.2073175315304974e-04 -1.7340967595712821e-04 4.2232908896413868e-03  1.2076261494330161e-04 -1.8750048048708236e-04 4.5617932110966755e-03  0.0000000000000000e+00 0.0000000000000000e+00 0.0000000000000000e+00  1.7702495801609886e-05 -2.5004688634572765e-06 2.7829242004032564e-05  3.5120199424021170e-05 -5.6027083809736441e-06 1.0441591867024847e-04  5.0573182583946902e-05 -1.0421788145461091e-05 2.2554097272220008e-04  6.4128341442804077e-05 -1.6754448575592428e-05 3.8578628819031053e-04  7.5918246076066723e-05 -2.4446064971892794e-05 5.8017745725198972e-04  8.6063429851611112e-05 -3.3343135113907885e-05 8.0406291265296657e-04  9.4686099281290377e-05 -4.3295500661569160e-05 1.0531281120403084e-03  1.0190936360425344e-04 -5.4159056591425435e-05 1.3233988086129491e-03  1.0785628752889187e-04 -6.5796885082902509e-05 1.6112392644436050e-03  1.1265030860207441e-04 -7.8079753480170857e-05 1.9133534463281763e-03  1.1641516480797298e-04 -9.0887320586764382e-05 2.2267853855634520e-03  1.1927494565948373e-04 -1.0410925602767041e-04 2.5489196020508950e-03  1.2135395863617710e-04 -1.1764607660201232e-04 2.8774819464363437e-03  1.2277701327691447e-04 -1.3141061495792450e-04 3.2105387522695823e-03  1.2367009584469491e-04 -1.4532957797470974e-04 3.5465010713797533e-03  1.2415484415920962e-04 -1.5934306581540328e-04 3.8841273101660368e-03  1.2434959283514621e-04 -1.7340635164837155e-04 4.2224854869690430e-03  1.2438849748021652e-04 -1.8749313130534578e-04 4.5609801948528874e-03  0.0000000000000000e+00 0.0000000000000000e+00 0.0000000000000000e+00  2.2966703027810864e-03 4.5562962647555131e-03 7.7998343417657332e-03  1.1948889656692690e-03 8.0356593671729662e-03 1.3794298050783652e-02  -3.9774430173965719e-05 8.9625424519106222e-03 1.3910702137546107e-02  -1.3553468763674269e-04 8.6098999401786509e-03 1.2792579764987854e-02  4.0664383863629281e-05 8.4569614531525769e-03 1.3024101723830984e-02  5.3218149634773482e-05 8.3837013733534440e-03 1.3186019320828931e-02  5.4841800639699245e-05 8.2844422056320786e-03 1.3326845690926011e-02  6.2859297832647883e-05 8.1932607725100793e-03 1.3520099342622875e-02  6.5308898973688966e-05 8.0942355396048434e-03 1.3710679713077979e-02  6.9456141100954644e-05 7.9904180960392365e-03 1.3913983551435921e-02  6.6815350769800009e-05 7.8851727198090867e-03 1.4127950931251689e-02  7.6210365846403699e-05 7.7656774365613326e-03 1.4326097726368957e-02  8.9340994895923981e-05 7.6503050287840893e-03 1.4610453419724938e-02  -1.1067142520485045e-05 7.5205540931880697e-03 1.4785891447113569e-02  8.5670487902714905e-05 7.3154108814065784e-03 1.4369093317941572e-02  3.9208871969634860e-04 7.5152954467606337e-03 1.5217983251617155e-02  1.6940392548580162e-04 8.2761217103819486e-03 1.7066519178183477e-02  -8.0384213119923456e-04 9.6726764101189369e-03 1.7035572991532414e-02  0.0000000000000000e+00 0.0000000000000000e+00 0.0000000000000000e+00  3.6748398831580932e-03 5.8836121956194311e-03 1.4873513764592035e-02  2.0471831969363732e-03 1.0906285242119625e-02 2.6648648965582406e-02  -9.7312377453310231e-05 1.2485751951790615e-02 2.7426465010408921e-02  -3.1636711843754250e-04 1.2125638416749967e-02 2.5244102497554488e-02  2.4674824306121074e-05 1.1911728278421126e-02 2.5420844666696332e-02  4.0764628866819511e-05 1.1806616367126158e-02 2.5521460260656229e-02  2.9995369228452602e-05 1.1662537488500229e-02 2.5517550416636260e-02  3.9233357583579380e-05 1.1528362649869893e-02 2.5597116787176404e-02  3.9642875734866016e-05 1.1384601740173224e-02 2.5657477225725721e-02  4.2828509311518243e-05 1.1233286756841775e-02 2.5724128563603624e-02  3.7958972626978562e-05 1.1081077474799653e-02 2.5801903225304221e-02  4.7182660420164827e-05 1.0905882785455994e-02 2.5837314210543031e-02  7.0635398922214859e-05 1.0729168301625659e-02 2.5988642106897487e-02  -7.7708845165622609e-05 1.0564233108391849e-02 2.6034865764002706e-02  3.2166219425137426e-05 1.0319474591385536e-02 2.5080428307205454e-02  5.2575840590623633e-04 1.0564437945308383e-02 2.6251078739709846e-02  2.1919721288261567e-04 1.1612466148647813e-02 2.9362359312304829e-02  -6.4412303708846839e-04 1.3703827567920383e-02 2.9393627667708332e-02  0.0000000000000000e+00 0.0000000000000000e+00 0.0000000000000000e+00  3.8695405229030098e-03 5.7831733457427911e-03 1.9976990416086023e-02  2.4362648171540411e-03 1.1318558992444513e-02 3.6273462812211943e-02  -6.8746040595412999e-05 1.3218048055838302e-02 3.8396758592877236e-02  -4.3871784508939775e-04 1.2938451496841042e-02 3.5758452324308979e-02  2.8728924120976946e-05 1.2721649187953720e-02 3.5786317502697979e-02  5.5643123679246947e-05 1.2610131958513572e-02 3.5838562047555561e-02  3.1738789201010139e-05 1.2455495445970331e-02 3.5712112796934758e-02  4.3435255931701132e-05 1.2308969052646517e-02 3.5684042335008513e-02  4.3835550585504546e-05 1.2153470844290803e-02 3.5630490229333567e-02  4.6440466003614551e-05 1.1989292411633129e-02 3.5575239847679546e-02  4.3835292836377837e-05 1.1824423488634821e-02 3.5529815130398351e-02  4.9383763580866171e-05 1.1635023260698950e-02 3.5428965485316502e-02  7.8997837855408374e-05 1.1442070711253995e-02 3.5429997154672689e-02  -5.8699484092083891e-05 1.1270461485887321e-02 3.5366145395216500e-02  -4.3521436246261133e-05 1.1010882992848395e-02 3.4188823190853430e-02  4.6792311577348317e-04 1.1256637299042697e-02 3.5543469954651463e-02  1.4334302291563484e-04 1.2341534056138220e-02 3.9514128700947088e-02  -7.2671410976055595e-04 1.4663046542574314e-02 4.0369330529572645e-02  0.0000000000000000e+00 0.0000000000000000e+00 0.0000000000000000e+00  1.4140913986847733e-03 -3.1103095070655440e-03 1.9607012633392429e-02  9.2745280214780602e-04 -5.2661381988976961e-03 3.5995810251781050e-02  -2.1727085885591676e-05 -5.5872736718801065e-03 3.7916291158043007e-02  -1.7217789647363049e-04 -5.2942621231812934e-03 3.5149412397315324e-02  -1.8892924169081446e-05 -5.2281120957704975e-03 3.5121685100851105e-02  8.4867168552695261e-06 -5.2338274908976150e-03 3.5171623284047597e-02  4.7668156556358274e-06 -5.2011607630746909e-03 3.5054744219265695e-02  8.4583351071597415e-06 -5.1660850688649076e-03 3.5028373382007635e-02  8.3479823523062878e-06 -5.1350274179805091e-03 3.4978404898629176e-02  1.0955447679524923e-05 -5.1015663287748113e-03 3.4931229850130092e-02  3.8936008095997097e-06 -5.0628001151181365e-03 3.4890835385593157e-02  6.9698539175194171e-06 -5.0306292486885307e-03 3.4788948586621918e-02  4.0470402529828301e-05 -5.0133847501369067e-03 3.4884850918032208e-02  -9.2002358231258348e-06 -4.9165325522007751e-03 3.4722965270189018e-02  6.6800744269962905e-05 -4.8246766184452871e-03 3.3472668878111012e-02  2.2804139004918117e-04 -5.1484799014735070e-03 3.5647853448853233e-02  -2.0429598390093675e-04 -5.7285321061873399e-03 3.9704829855377613e-02  -1.0312116697268926e-03 -6.6118845145665215e-03 3.9752787580463370e-02  0.0000000000000000e+00 0.0000000000000000e+00 0.0000000000000000e+00  1.5804560641679208e-03 -2.7323443361663251e-03 1.2783979184939179e-02  1.0875707853596930e-03 -4.6260320483427035e-03 2.4892701677039945e-02  2.2668918040289513e-05 -4.9968517774736914e-03 2.6256984788508117e-02  -1.9749760009902837e-04 -4.7752829749663252e-03 2.3959182192552414e-02  -1.5045297356491375e-05 -4.7092665476943015e-03 2.4023578089279386e-02  1.8591431480794018e-05 -4.7104913390442552e-03 2.4187229724048583e-02  9.5316681367384105e-06 -4.6827513297085519e-03 2.4187997193385782e-02  1.4429077979208896e-05 -4.6523034327280322e-03 2.4279963244011792e-02  1.5073006816707436e-05 -4.6253649617173393e-03 2.4359089796400061e-02  1.7031509209172444e-05 -4.5965592177275886e-03 2.4443375554698308e-02  1.3033047244011328e-05 -4.5629507173652935e-03 2.4542784607017636e-02  1.4865214850538247e-05 -4.5355791350303659e-03 2.4589766334205780e-02  4.0664215276381278e-05 -4.5211435082715438e-03 2.4785088932868224e-02  -2.3445907057764743e-06 -4.4390720382846546e-03 2.4854326679684444e-02  6.1914888699401399e-05 -4.3558893731466567e-03 2.3867704872466273e-02  2.6977976187498009e-04 -4.6162553398536319e-03 2.5434995303294003e-02  2.3228946659835132e-05 -5.0897575851150739e-03 2.8795749412689253e-02  -9.5948568544484416e-04 -6.0189048438963437e-03 2.9531751118029956e-02  0.0000000000000000e+00 0.0000000000000000e+00 0.0000000000000000e+00  1.0619997286663207e-03 -1.6796965635036145e-03 5.3742417403737147e-03  7.6638337436692129e-04 -2.8667177485564360e-03 1.1368837670988225e-02  4.6800230863880380e-05 -3.1453285058551492e-03 1.2071746933777631e-02  -1.2736365166364939e-04 -3.0253629495794634e-03 1.0857274763212197e-02  4.2843643552853667e-06 -2.9837550851057166e-03 1.1006413381544034e-02  3.3965016473359295e-05 -2.9843754636432675e-03 1.1247657038820819e-02  2.6782264657307919e-05 -2.9708848872628661e-03 1.1392383757305058e-02  3.1707131806418292e-05 -2.9562289291887342e-03 1.1605255942026348e-02  3.3835421850794657e-05 -2.9435630570337043e-03 1.1822024269711255e-02  3.5542252596258830e-05 -2.9301955759303733e-03 1.2047942269096995e-02  3.5175431740762188e-05 -2.9140914725970155e-03 1.2291266533715244e-02  3.6807165783025364e-05 -2.9015731432800763e-03 1.2510662128036884e-02  4.9664478126893537e-05 -2.8974253086038373e-03 1.2803955136213931e-02  2.4227087172948639e-05 -2.8533601831096374e-03 1.3073888506227939e-02  6.2759552966747288e-05 -2.8003802974853665e-03 1.2694136358835826e-02  2.1264437722591295e-04 -2.9581951099097127e-03 1.3567060215205195e-02  1.5032166459157017e-04 -3.2249348289318650e-03 1.5532859356191687e-02  -9.1089157594578091e-04 -4.0064847428674319e-03 1.6491473580735296e-02  0.0000000000000000e+00 0.0000000000000000e+00 0.0000000000000000e+00  8.8616376403629639e-06 -1.3810181399251023e-06 2.7344432148317430e-05  1.7291006141582252e-05 -4.5526501595393633e-06 1.0413834944297132e-04  2.4690390771585858e-05 -9.4173892530701704e-06 2.2539991273286161e-04  3.1172315966054704e-05 -1.5801252199614962e-05 3.8577230766944384e-04  3.6802964303838282e-05 -2.3542657038051617e-05 5.8027913144266367e-04  4.1642170532308508e-05 -3.2487253352295092e-05 8.0427016524079961e-04  4.5750011967783847e-05 -4.2484481962747241e-05 1.0534311261147409e-03  4.9186764533275690e-05 -5.3390019467377975e-05 1.3237880993109473e-03  5.2012550126421640e-05 -6.5066690547052581e-05 1.6117056881568208e-03  5.4287485102129260e-05 -7.7385013720040896e-05 1.9138881900618195e-03  5.6071623938145479e-05 -9.0224387258756335e-05 2.2273799909302773e-03  5.7425012551642688e-05 -1.0347421072067139e-04 2.5495659752371278e-03  5.8407574393881137e-05 -1.1703471831662309e-04 2.8781723674255514e-03  5.9079164735211171e-05 -1.3081841097623191e-04 3.2112658818651083e-03  5.9500062230701199e-05 -1.4475192284488155e-04 3.5472578893879381e-03  5.9728240350141267e-05 -1.5877544945799328e-04 3.8849073739489191e-03  5.9820024191324772e-05 -1.7284338189264267e-04 4.2232830133968752e-03  5.9837916359973270e-05 -1.8692855326225358e-04 4.5617874135090303e-03  0.0000000000000000e+00 0.0000000000000000e+00 0.0000000000000000e+00  8.9448667981425122e-06 -2.1157784589269273e-06 2.6893596037783069e-05  1.7950259760298377e-05 -5.1462356522627802e-06 1.0363919615103968e-04  2.5807287171420214e-05 -9.9358113375041410e-06 2.2485464578523079e-04  3.2701275991921568e-05 -1.6252878052239451e-05 3.8518459213176919e-04  3.8700689078802609e-05 -2.3932444798161520e-05 5.7965405403984994e-04  4.3866598351122118e-05 -3.2819691857443913e-05 8.0361236242695118e-04  4.8260298349943331e-05 -4.2764107567087283e-05 1.0527449570416718e-03  5.1943783957620609e-05 -5.3621361133486695e-05 1.3230775777528432e-03  5.4979084003689153e-05 -6.5254283603985086e-05 1.6109744922977931e-03  5.7428451442163877e-05 -7.7533403157957272e-05 1.9131396538456626e-03  5.9354367827246168e-05 -9.0338123534967169e-05 2.2266170844878535e-03  6.0819559031847413e-05 -1.0355785381686213e-04 2.5487912922864389e-03  6.1886940953421188e-05 -1.1709283233481313e-04 2.8773881233957101e-03  6.2619715542521900e-05 -1.3085558688567345e-04 3.2104739025929519e-03  6.3081700108208997e-05 -1.4477270309013029e-04 3.5464596234999948e-03  6.3334796817464875e-05 -1.5878408597334482e-04 3.8841038064216537e-03  6.3439276987088295e-05 -1.7284424350526428e-04 4.2224746579614687e-03  6.3461859910718133e-05 -1.8692583305291797e-04 4.5609753479949116e-03  0.0000000000000000e+00 0.0000000000000000e+00 0.0000000000000000e+00  1.1684034669516240e-03 1.6442665615378999e-03 7.0379112387644977e-03  6.9928290560279877e-04 2.8493145414759712e-03 1.2426724608838563e-02  1.0485461289480741e-05 3.1834303407123183e-03 1.2225059060251854e-02  -9.3199079349982585e-05 3.0705604425939862e-03 1.1052297682255475e-02  1.3325760194451052e-05 3.0176413201732739e-03 1.1314656921812331e-02  2.9797899530688675e-05 2.9768120182102225e-03 1.1501662108226856e-02  2.6726005829316293e-05 2.9297736829426119e-03 1.1658801421928754e-02  3.1255121527430451e-05 2.8880295125404422e-03 1.1869063237396487e-02  3.2377251665717920e-05 2.8411964889189824e-03 1.2077356834828676e-02  3.4620628251403690e-05 2.7922818027815407e-03 1.2299055099081316e-02  3.3005628498484200e-05 2.7437027098089839e-03 1.2532237731443293e-02  3.5250049516747978e-05 2.6875823130414426e-03 1.2750411460386014e-02  5.0979042959722450e-05 2.6286100406492903e-03 1.3056041945527015e-02  1.1360964540355333e-05 2.5749668787851641e-03 1.3260808460738330e-02  2.8995853023687499e-05 2.5012477179591130e-03 1.2863661586755590e-02  1.6762159293954435e-04 2.5604894543426195e-03 1.3674643169157071e-02  9.0940252680278604e-05 2.8534874313859335e-03 1.5404208803578899e-02  -6.1079762667794906e-04 3.4300023027497334e-03 1.4898700622773304e-02  0.0000000000000000e+00 0.0000000000000000e+00 0.0000000000000000e+00  1.6901410403838864e-03 2.6270444861855192e-03 1.4431998073514359e-02  1.0827794627231544e-03 4.9195376402514151e-03 2.6133138789144743e-02  -2.1088445116338182e-05 5.6593748693431921e-03 2.6759990621509952e-02  -1.9289235544140429e-04 5.5220594973177089e-03 2.4456912502050600e-02  2.9759873057218906e-06 5.4334129786406098e-03 2.4623391506960590e-02  3.2350322750800695e-05 5.3686303971423573e-03 2.4748991487246078e-02  1.9204370820173844e-05 5.2906980493069916e-03 2.4753877159163135e-02  2.3736557043833526e-05 5.2219007734619349e-03 2.4842961218411147e-02  2.4664409805980156e-05 5.1461192757159876e-03 2.4914042489432655e-02  2.6370133749224474e-05 5.0664747298406008e-03 2.4991290590959694e-02  2.4044706528695421e-05 4.9880388680225629e-03 2.5080532971720259e-02  2.5928128477480312e-05 4.8961186738825067e-03 2.5127196035439781e-02  4.9246153493140753e-05 4.7983620187032556e-03 2.5290839133080039e-02  -8.7496363994608686e-06 4.7169853672612031e-03 2.5357928589727106e-02  2