<?xml version="1.0"?>
<VTKFile type="UnstructuredGrid"  version="0.1"  >
<UnstructuredGrid>
<Piece  NumberOfPoints="760" NumberOfCells="3024">
<Points>
<DataArray  type="Float64"  NumberOfComponents="3"  format="ascii">0 0 0  0.05555555555555555 0 0  0.1111111111111111 0 0  0.1666666666666667 0 0  0.2222222222222222 0 0  0.2777777777777778 0 0  0.3333333333333333 0 0  0.3888888888888889 0 0  0.4444444444444444 0 0  0.5 0 0  0.5555555555555556 0 0  0.6111111111111112 0 0  0.6666666666666666 0 0  0.7222222222222222 0 0  0.7777777777777778 0 0  0.8333333333333334 0 0  0.8888888888888888 0 0  0.9444444444444444 0 0  1 0 0  0 0.01428571428571429 0  0.05555555555555555 0.01428571428571429 0  0.1111111111111111 0.01428571428571429 0  0.1666666666666667 0.01428571428571429 0  0.2222222222222222 0.01428571428571429 0  0.2777777777777778 0.01428571428571429 0  0.3333333333333333 0.01428571428571429 0  0.3888888888888889 0.01428571428571429 0  0.4444444444444444 0.01428571428571429 0  0.5 0.01428571428571429 0  0.5555555555555556 0.01428571428571429 0  0.6111111111111112 0.01428571428571429 0  0.6666666666666666 0.01428571428571429 0  0.7222222222222222 0.01428571428571429 0  0.7777777777777778 0.01428571428571429 0  0.8333333333333334 0.01428571428571429 0  0.8888888888888888 0.01428571428571429 0  0.9444444444444444 0.01428571428571429 0  1 0.01428571428571429 0  0 0.02857142857142857 0  0.05555555555555555 0.02857142857142857 0  0.1111111111111111 0.02857142857142857 0  0.1666666666666667 0.02857142857142857 0  0.2222222222222222 0.02857142857142857 0  0.2777777777777778 0.02857142857142857 0  0.3333333333333333 0.02857142857142857 0  0.3888888888888889 0.02857142857142857 0  0.4444444444444444 0.02857142857142857 0  0.5 0.02857142857142857 0  0.5555555555555556 0.02857142857142857 0  0.6111111111111112 0.02857142857142857 0  0.6666666666666666 0.02857142857142857 0  0.7222222222222222 0.02857142857142857 0  0.7777777777777778 0.02857142857142857 0  0.8333333333333334 0.02857142857142857 0  0.8888888888888888 0.02857142857142857 0  0.9444444444444444 0.02857142857142857 0  1 0.02857142857142857 0  0 0.04285714285714286 0  0.05555555555555555 0.04285714285714286 0  0.1111111111111111 0.04285714285714286 0  0.1666666666666667 0.04285714285714286 0  0.2222222222222222 0.04285714285714286 0  0.2777777777777778 0.04285714285714286 0  0.3333333333333333 0.04285714285714286 0  0.3888888888888889 0.04285714285714286 0  0.4444444444444444 0.04285714285714286 0  0.5 0.04285714285714286 0  0.5555555555555556 0.04285714285714286 0  0.6111111111111112 0.04285714285714286 0  0.6666666666666666 0.04285714285714286 0  0.7222222222222222 0.04285714285714286 0  0.7777777777777778 0.04285714285714286 0  0.8333333333333334 0.04285714285714286 0  0.8888888888888888 0.04285714285714286 0  0.9444444444444444 0.04285714285714286 0  1 0.04285714285714286 0  0 0.05714285714285715 0  0.05555555555555555 0.05714285714285715 0  0.1111111111111111 0.05714285714285715 0  0.1666666666666667 0.05714285714285715 0  0.2222222222222222 0.05714285714285715 0  0.2777777777777778 0.05714285714285715 0  0.3333333333333333 0.05714285714285715 0  0.3888888888888889 0.05714285714285715 0  0.4444444444444444 0.05714285714285715 0  0.5 0.05714285714285715 0  0.5555555555555556 0.05714285714285715 0  0.6111111111111112 0.05714285714285715 0  0.6666666666666666 0.05714285714285715 0  0.7222222222222222 0.05714285714285715 0  0.7777777777777778 0.05714285714285715 0  0.8333333333333334 0.05714285714285715 0  0.8888888888888888 0.05714285714285715 0  0.9444444444444444 0.05714285714285715 0  1 0.05714285714285715 0  0 0.07142857142857142 0  0.05555555555555555 0.07142857142857142 0  0.1111111111111111 0.07142857142857142 0  0.1666666666666667 0.07142857142857142 0  0.2222222222222222 0.07142857142857142 0  0.2777777777777778 0.07142857142857142 0  0.3333333333333333 0.07142857142857142 0  0.3888888888888889 0.07142857142857142 0  0.4444444444444444 0.07142857142857142 0  0.5 0.07142857142857142 0  0.5555555555555556 0.07142857142857142 0  0.6111111111111112 0.07142857142857142 0  0.6666666666666666 0.07142857142857142 0  0.7222222222222222 0.07142857142857142 0  0.7777777777777778 0.07142857142857142 0  0.8333333333333334 0.07142857142857142 0  0.8888888888888888 0.07142857142857142 0  0.9444444444444444 0.07142857142857142 0  1 0.07142857142857142 0  0 0.08571428571428573 0  0.05555555555555555 0.08571428571428573 0  0.1111111111111111 0.08571428571428573 0  0.1666666666666667 0.08571428571428573 0  0.2222222222222222 0.08571428571428573 0  0.2777777777777778 0.08571428571428573 0  0.3333333333333333 0.08571428571428573 0  0.3888888888888889 0.08571428571428573 0  0.4444444444444444 0.08571428571428573 0  0.5 0.08571428571428573 0  0.5555555555555556 0.08571428571428573 0  0.6111111111111112 0.08571428571428573 0  0.6666666666666666 0.08571428571428573 0  0.7222222222222222 0.08571428571428573 0  0.7777777777777778 0.08571428571428573 0  0.8333333333333334 0.08571428571428573 0  0.8888888888888888 0.08571428571428573 0  0.9444444444444444 0.08571428571428573 0  1 0.08571428571428573 0  0 0.1 0  0.05555555555555555 0.1 0  0.1111111111111111 0.1 0  0.1666666666666667 0.1 0  0.2222222222222222 0.1 0  0.2777777777777778 0.1 0  0.3333333333333333 0.1 0  0.3888888888888889 0.1 0  0.4444444444444444 0.1 0  0.5 0.1 0  0.5555555555555556 0.1 0  0.6111111111111112 0.1 0  0.6666666666666666 0.1 0  0.7222222222222222 0.1 0  0.7777777777777778 0.1 0  0.8333333333333334 0.1 0  0.8888888888888888 0.1 0  0.9444444444444444 0.1 0  1 0.1 0  0 0 0.01  0.05555555555555555 0 0.01  0.1111111111111111 0 0.01  0.1666666666666667 0 0.01  0.2222222222222222 0 0.01  0.2777777777777778 0 0.01  0.3333333333333333 0 0.01  0.3888888888888889 0 0.01  0.4444444444444444 0 0.01  0.5 0 0.01  0.5555555555555556 0 0.01  0.6111111111111112 0 0.01  0.6666666666666666 0 0.01  0.7222222222222222 0 0.01  0.7777777777777778 0 0.01  0.8333333333333334 0 0.01  0.8888888888888888 0 0.01  0.9444444444444444 0 0.01  1 0 0.01  0 0.01428571428571429 0.01  0.05555555555555555 0.01428571428571429 0.01  0.1111111111111111 0.01428571428571429 0.01  0.1666666666666667 0.01428571428571429 0.01  0.2222222222222222 0.01428571428571429 0.01  0.2777777777777778 0.01428571428571429 0.01  0.3333333333333333 0.01428571428571429 0.01  0.3888888888888889 0.01428571428571429 0.01  0.4444444444444444 0.01428571428571429 0.01  0.5 0.01428571428571429 0.01  0.5555555555555556 0.01428571428571429 0.01  0.6111111111111112 0.01428571428571429 0.01  0.6666666666666666 0.01428571428571429 0.01  0.7222222222222222 0.01428571428571429 0.01  0.7777777777777778 0.01428571428571429 0.01  0.8333333333333334 0.01428571428571429 0.01  0.8888888888888888 0.01428571428571429 0.01  0.9444444444444444 0.01428571428571429 0.01  1 0.01428571428571429 0.01  0 0.02857142857142857 0.01  0.05555555555555555 0.02857142857142857 0.01  0.1111111111111111 0.02857142857142857 0.01  0.1666666666666667 0.02857142857142857 0.01  0.2222222222222222 0.02857142857142857 0.01  0.2777777777777778 0.02857142857142857 0.01  0.3333333333333333 0.02857142857142857 0.01  0.3888888888888889 0.02857142857142857 0.01  0.4444444444444444 0.02857142857142857 0.01  0.5 0.02857142857142857 0.01  0.5555555555555556 0.02857142857142857 0.01  0.6111111111111112 0.02857142857142857 0.01  0.6666666666666666 0.02857142857142857 0.01  0.7222222222222222 0.02857142857142857 0.01  0.7777777777777778 0.02857142857142857 0.01  0.8333333333333334 0.02857142857142857 0.01  0.8888888888888888 0.02857142857142857 0.01  0.9444444444444444 0.02857142857142857 0.01  1 0.02857142857142857 0.01  0 0.04285714285714286 0.01  0.05555555555555555 0.04285714285714286 0.01  0.1111111111111111 0.04285714285714286 0.01  0.1666666666666667 0.04285714285714286 0.01  0.2222222222222222 0.04285714285714286 0.01  0.2777777777777778 0.04285714285714286 0.01  0.3333333333333333 0.04285714285714286 0.01  0.3888888888888889 0.04285714285714286 0.01  0.4444444444444444 0.04285714285714286 0.01  0.5 0.04285714285714286 0.01  0.5555555555555556 0.04285714285714286 0.01  0.6111111111111112 0.04285714285714286 0.01  0.6666666666666666 0.04285714285714286 0.01  0.7222222222222222 0.04285714285714286 0.01  0.7777777777777778 0.04285714285714286 0.01  0.8333333333333334 0.04285714285714286 0.01  0.8888888888888888 0.04285714285714286 0.01  0.9444444444444444 0.04285714285714286 0.01  1 0.04285714285714286 0.01  0 0.05714285714285715 0.01  0.05555555555555555 0.05714285714285715 0.01  0.1111111111111111 0.05714285714285715 0.01  0.1666666666666667 0.05714285714285715 0.01  0.2222222222222222 0.05714285714285715 0.01  0.2777777777777778 0.05714285714285715 0.01  0.3333333333333333 0.05714285714285715 0.01  0.3888888888888889 0.05714285714285715 0.01  0.4444444444444444 0.05714285714285715 0.01  0.5 0.05714285714285715 0.01  0.5555555555555556 0.05714285714285715 0.01  0.6111111111111112 0.05714285714285715 0.01  0.6666666666666666 0.05714285714285715 0.01  0.7222222222222222 0.05714285714285715 0.01  0.7777777777777778 0.05714285714285715 0.01  0.8333333333333334 0.05714285714285715 0.01  0.8888888888888888 0.05714285714285715 0.01  0.9444444444444444 0.05714285714285715 0.01  1 0.05714285714285715 0.01  0 0.07142857142857142 0.01  0.05555555555555555 0.07142857142857142 0.01  0.1111111111111111 0.07142857142857142 0.01  0.1666666666666667 0.07142857142857142 0.01  0.2222222222222222 0.07142857142857142 0.01  0.2777777777777778 0.07142857142857142 0.01  0.3333333333333333 0.07142857142857142 0.01  0.3888888888888889 0.07142857142857142 0.01  0.4444444444444444 0.07142857142857142 0.01  0.5 0.07142857142857142 0.01  0.5555555555555556 0.07142857142857142 0.01  0.6111111111111112 0.07142857142857142 0.01  0.6666666666666666 0.07142857142857142 0.01  0.7222222222222222 0.07142857142857142 0.01  0.7777777777777778 0.07142857142857142 0.01  0.8333333333333334 0.07142857142857142 0.01  0.8888888888888888 0.07142857142857142 0.01  
[...]
<PointData  Vectors="f_36"> 
<DataArray  type="Float64"  Name="f_36"  NumberOfComponents="3" format="ascii">0.0000000000000000e+00 0.0000000000000000e+00 0.0000000000000000e+00  -1.3524883243050271e-03 2.6974413231161277e-03 -6.3382461141348314e-03  -1.4707953596862346e-03 5.0820109384773649e-03 -1.3418357729320698e-02  -9.9649600429876591e-04 6.7677531010444571e-03 -1.9020504155061135e-02  -1.6869075437342293e-04 7.3013129558697817e-03 -2.1542284832894044e-02  8.5428206969527997e-04 6.4014155192668645e-03 -1.9877065075304855e-02  1.5670519684161301e-03 4.2996507031538931e-03 -1.3718535334757403e-02  1.3101032350737981e-03 2.1380506634668395e-03 -6.2117441746137887e-03  4.3448042726728958e-04 1.1004153814751629e-03 -2.4683093194617697e-03  4.2637919342429338e-05 9.6108580258550801e-04 -2.6578517806413278e-03  4.7036846787599531e-04 5.5106138562226723e-04 -2.3624095850922266e-03  9.0339249565123895e-04 -5.7609038558951867e-04 1.0517035929207739e-03  7.2296884711202695e-04 -1.7050957758629830e-03 4.9855538699025903e-03  4.1958990681468860e-04 -2.3276583547794704e-03 6.7494982121556685e-03  3.9840077555324986e-04 -2.7871735717296571e-03 7.9107079662215814e-03  4.1133050742004609e-04 -3.2942743748400425e-03 9.5330590559588087e-03  3.0999027604991850e-04 -3.7180889563125309e-03 1.0935349149298255e-02  8.1004258746690143e-05 -4.0068308340805133e-03 1.1901416884940669e-02  -1.8601649040710693e-04 -4.3122709643385777e-03 1.2148513414932222e-02  0.0000000000000000e+00 0.0000000000000000e+00 0.0000000000000000e+00  -1.3049297558097592e-03 2.2938357233212108e-03 -3.9384012687615740e-03  -1.4351070560537928e-03 4.4986700492837548e-03 -8.8450209490319801e-03  -1.0016499840220564e-03 6.1370381143572563e-03 -1.2882818999973608e-02  -2.2787457806211630e-04 6.7525215065091793e-03 -1.4871100846571991e-02  7.3743708312395885e-04 6.0486238017881562e-03 -1.3975665936438312e-02  1.4691240222510686e-03 4.1711612939252492e-03 -9.7401433684260463e-03  1.3241102804544156e-03 2.1235348822448694e-03 -4.2505771820578863e-03  4.9611387142051090e-04 1.0650308690044528e-03 -1.4587284364008858e-03  3.3807724595188433e-05 9.0683901570630463e-04 -1.7452164551915051e-03  3.8371171153650312e-04 5.8102069375792341e-04 -1.8045109263654594e-03  8.4659775830791487e-04 -4.2095530548963027e-04 5.6165858229207213e-04  7.3170679001329929e-04 -1.4890455055745102e-03 3.4612826958101673e-03  4.0837062228449945e-04 -2.0961139999874203e-03 4.6817489393004225e-03  3.6289840689317660e-04 -2.5229731090766830e-03 5.4164105482493478e-03  3.9152476221093405e-04 -2.9933644940030773e-03 6.5618736324898159e-03  3.1302636820971364e-04 -3.3981977177639689e-03 7.5793065311020417e-03  1.4406831199380068e-04 -3.6915049088772568e-03 8.3288950541357595e-03  -2.1385521987478097e-04 -4.1034602343419943e-03 8.7368230770136536e-03  0.0000000000000000e+00 0.0000000000000000e+00 0.0000000000000000e+00  -7.9476634672818536e-04 1.3966663394978597e-03 -1.6621434198355518e-03  -8.9439474581418283e-04 2.8690094416724292e-03 -3.9900256748719365e-03  -6.3588261887896863e-04 4.0366034211425884e-03 -5.9720351826906314e-03  -1.6272703123390320e-04 4.5503956274246951e-03 -7.0182309112631798e-03  4.3106490179752619e-04 4.1751043204679159e-03 -6.7101110204928448e-03  9.0081590406095480e-04 2.9407865976144735e-03 -4.7184616007539953e-03  8.4794280159746014e-04 1.4942429942174297e-03 -1.9661280261878832e-03  3.4184539402021637e-04 7.0662552762355802e-04 -5.1502500987455420e-04  2.5271242382360499e-05 6.1135093918309098e-04 -6.9205542414105389e-04  2.1908925034805455e-04 4.5777093981782938e-04 -8.2989775516821324e-04  5.2194691529457442e-04 -1.9495095783953010e-04 3.0341860382626781e-04  4.7397711076567223e-04 -9.4665257139796581e-04 1.7878358894389394e-03  2.6331715442426282e-04 -1.3706803720189807e-03 2.3954710669447125e-03  2.2452279421034268e-04 -1.6487522724651705e-03 2.7313587541394797e-03  2.4855285888323843e-04 -1.9665710880974862e-03 3.3056516957027200e-03  2.0792001449446417e-04 -2.2527148268081257e-03 3.8315004367984085e-03  1.3947107809568390e-04 -2.4598535619835024e-03 4.2429092624513345e-03  -3.3096168662175647e-04 -2.9679159076804306e-03 4.6238726244029055e-03  0.0000000000000000e+00 0.0000000000000000e+00 0.0000000000000000e+00  1.5588460699787838e-06 -1.1321212811584451e-07 1.9519340513154180e-06  3.2874208991166718e-06 -3.7524458692350401e-07 8.4440366232322221e-06  5.1523761588719731e-06 -8.0731195742405863e-07 2.0041040374022380e-05  7.0911384876388637e-06 -1.4128789052748138e-06 3.7054109810213698e-05  9.0289601557309529e-06 -2.1938798091336167e-06 5.9595323965000660e-05  1.0888662752790905e-05 -3.1463613662518698e-06 8.7547741245160176e-05  1.2608562492710550e-05 -4.2600795482934097e-06 1.2057905900711911e-04  1.4156825392851978e-05 -5.5197339092661351e-06 1.5821730596262705e-04  1.5525281209639587e-05 -6.9080041615668835e-06 1.9995352925398206e-04  1.6708339622769706e-05 -8.4079591297505814e-06 2.4528136835135389e-04  1.7693850237819455e-05 -1.0002822964588288e-05 2.9366720921740231e-04  1.8474736577916241e-05 -1.1674777144534044e-05 3.4453190488560522e-04  1.9060329366720618e-05 -1.3405623040317600e-05 3.9729571116996849e-04  1.9471082649610789e-05 -1.5179034565671529e-05 4.5143376326070057e-04  1.9731146058565607e-05 -1.6981604769885398e-05 5.0648627871246110e-04  1.9869818055850269e-05 -1.8802456639971570e-05 5.6206437668265830e-04  1.9923139802855364e-05 -2.0633631372069241e-05 6.1787198813001854e-04  1.9933033318573100e-05 -2.2471086407831125e-05 6.7372489617867153e-04  0.0000000000000000e+00 0.0000000000000000e+00 0.0000000000000000e+00  1.4464935614295087e-06 -2.1148173553214933e-07 1.9303447268665590e-06  3.2016504969774644e-06 -4.8443574037299691e-07 8.4147961463691519e-06  5.1008310689563764e-06 -9.2354802010152373e-07 2.0011615425797443e-05  7.0814401171429303e-06 -1.5310570618167238e-06 3.7026030656099750e-05  9.0685931800538028e-06 -2.3086298593957374e-06 5.9569186600682732e-05  1.0982957013032056e-05 -3.2529140937210817e-06 8.7523163147425727e-05  1.2758716605896827e-05 -4.3557334352095618e-06 1.2055509370586543e-04  1.4359747326060274e-05 -5.6041891748441627e-06 1.5819331796785796e-04  1.5776516663085568e-05 -6.9816400464513551e-06 1.9992987630996015e-04  1.7004558544557351e-05 -8.4702156994577426e-06 2.4525909123127048e-04  1.8032076901650503e-05 -1.0052686613672829e-05 2.9364718315517529e-04  1.8850189135392695e-05 -1.1712316939100641e-05 3.4451451258908302e-04  1.9466605204704419e-05 -1.3432119844051376e-05 3.9728124340300650e-04  1.9902042632626474e-05 -1.5195945146758280e-05 4.5142250954326066e-04  2.0181082564009146e-05 -1.6990450311044118e-05 5.0647799150080515e-04  2.0332983284107316e-05 -1.8805204267974037e-05 5.6205809127817875e-04  2.0394040751597682e-05 -2.0632630634242785e-05 6.1786616108918725e-04  2.0406423918535330e-05 -2.2468745295283858e-05 6.7371749065436263e-04  0.0000000000000000e+00 0.0000000000000000e+00 0.0000000000000000e+00  -8.7835678334879821e-04 -1.5534582164995036e-03 -2.4268021889541610e-03  -8.8527975618565857e-04 -3.1564628176518070e-03 -5.0356470871287104e-03  -5.7024934773793827e-04 -4.4539631893894226e-03 -7.0129382531812284e-03  -7.0199868142098502e-05 -5.0476225472944085e-03 -7.8078466484161578e-03  5.1251798161702539e-04 -4.7100563942994774e-03 -7.0819144195118956e-03  9.1148682821112260e-04 -3.4685506796961808e-03 -4.7316076031503626e-03  7.6411735220989073e-04 -1.9130323695554321e-03 -1.9200830780631249e-03  2.4462509583687392e-04 -9.6165719585401301e-04 -6.5914223302233931e-04  -5.6791674208691936e-06 -7.9430190151053427e-04 -9.7129587542876036e-04  2.4437910845262354e-04 -6.8453946918261177e-04 -1.0018879248253276e-03  5.2286681888733238e-04 -4.9953606116774095e-05 3.3412973524128876e-04  4.4072354300329973e-04 8.0623042554273149e-04 1.8925984502348508e-03  2.8501741896106743e-04 1.3885359414273172e-03 2.5703902863162863e-03  2.9930955525645902e-04 1.8239854801932226e-03 3.1613416064162308e-03  3.1462384094554322e-04 2.3117754010983610e-03 4.0229390609364682e-03  2.4737516019646344e-04 2.7731994136935899e-03 4.7602028589171733e-03  1.1127814060504219e-04 3.1821416987305568e-03 5.3082541639779381e-03  -2.5869204578416312e-04 3.7523446083364037e-03 5.4072079607940240e-03  0.0000000000000000e+00 0.0000000000000000e+00 0.0000000000000000e+00  -1.3941382769961656e-03 -2.0087857182739572e-03 -4.7656089775297448e-03  -1.4430878142233643e-03 -4.2603138091110325e-03 -9.9143921840447579e-03  -9.4604294942351975e-04 -6.1254160637743424e-03 -1.3884705576509856e-02  -1.4954204389671464e-04 -7.0494701937414027e-03 -1.5554455804486122e-02  7.8254218005536385e-04 -6.6967508161287076e-03 -1.4258669369454208e-02  1.4498218696895055e-03 -5.0709989388870273e-03 -9.8296720408671545e-03  1.2577962284749937e-03 -2.9184879426758467e-03 -4.4000951411894479e-03  4.1576012428263571e-04 -1.4925285067908522e-03 -1.7580316379075033e-03  -3.5266237251433368e-05 -1.1502772948720227e-03 -2.1451752697975376e-03  3.4625778275327570e-04 -9.8547966943972722e-04 -2.1899259466605933e-03  8.2953805448016484e-04 -1.5237501897484874e-04 2.7148922570125145e-04  7.2138826709161933e-04 1.0355315275519291e-03 3.2860767731580625e-03  4.4474496165730003e-04 1.8939104941950472e-03 4.7097250120476048e-03  4.6147350448271505e-04 2.5266963428044256e-03 5.8725688988010118e-03  4.9901657033823998e-04 3.2125619867377671e-03 7.5215058252139687e-03  3.8183294617675861e-04 3.8746184109111218e-03 8.9575699733554781e-03  1.6091983078417221e-04 4.4873598593328078e-03 1.0019117675332093e-02  -1.2830283536332911e-04 5.3770608735772742e-03 1.0285163657412907e-02  0.0000000000000000e+00 0.0000000000000000e+00 0.0000000000000000e+00  -1.4166019345906455e-03 -1.9598747068333327e-03 -6.5499894576553381e-03  -1.5252105940908357e-03 -4.3746685507669927e-03 -1.3686015877181271e-02  -1.0421370010037306e-03 -6.4109508253822542e-03 -1.9294289586601968e-02  -2.4034229053705912e-04 -7.4838589329063194e-03 -2.1761488230196555e-02  7.1773656375715962e-04 -7.2162734172093786e-03 -2.0148594163028690e-02  1.4730413125206433e-03 -5.5715772656866613e-03 -1.4286317666593603e-02  1.3794227725737625e-03 -3.2881980517297182e-03 -6.9296416262930784e-03  4.9814739581739318e-04 -1.7001498617017692e-03 -3.0203333532371731e-03  -7.4819618958525862e-05 -1.2681049868462585e-03 -3.1396967647918895e-03  2.7184251407174026e-04 -1.0921939272243834e-03 -3.0754250484811823e-03  8.4604430578557276e-04 -2.4098933718097798e-04 1.3481989291435413e-04  7.9135190266554694e-04 1.0180845784709262e-03 4.2410647952929488e-03  4.5453962871765206e-04 1.9554683278233428e-03 6.4067739160752453e-03  4.5422217160398992e-04 2.6444785371651535e-03 8.1044584355567245e-03  5.1944834449175797e-04 3.3811755274258007e-03 1.0376399054464275e-02  3.9016580264207633e-04 4.1014290250858572e-03 1.2402921457886013e-02  1.1165761435232260e-04 4.7651236373877246e-03 1.3940214221238091e-02  -1.3639650599479435e-04 5.7759893141893599e-03 1.4655183209437881e-02  0.0000000000000000e+00 0.0000000000000000e+00 0.0000000000000000e+00  -5.4122054641278082e-04 1.0543171594420337e-03 -6.1158607741705192e-03  -6.5728963397299750e-04 2.1233985820928386e-03 -1.3188176863983565e-02  -4.7408672616170138e-04 2.8973222783661556e-03 -1.8800217927053463e-02  -1.2679451544513737e-04 3.1835404471105165e-03 -2.1371419139731857e-02  3.1338621032733050e-04 2.8432895242151810e-03 -1.9793332100960952e-02  6.5315534446590891e-04 1.9402628432359367e-03 -1.3710182641574035e-02  5.9584087496300639e-04 9.5611636562421809e-04 -6.2057451984595625e-03  2.3421945381224383e-04 4.6363709789286101e-04 -2.4255266285356917e-03  3.5207140289160975e-05 4.1829527962794949e-04 -2.6255263610510562e-03  1.9948710767131420e-04 2.8060716713403057e-04 -2.3949747320111958e-03  4.1256681482721867e-04 -2.0485541859928248e-04 9.7224763863985257e-04  3.6580572165807751e-04 -7.2375904189593077e-04 4.9099234909775061e-03  2.2877273996655816e-04 -1.0034901924737313e-03 6.6746839864792983e-03  2.0591631243608929e-04 -1.1924442803408538e-03 7.8127620101456161e-03  2.0987579934427194e-04 -1.4104230953995475e-03 9.4207208047564425e-03  1.5198083581545324e-04 -1.6028516570644232e-03 1.0820574957489764e-02  -4.0048102561955953e-06 -1.7759225625429073e-03 1.1784555848271060e-02  -2.1588866093576943e-04 -2.0607716077594099e-03 1.2031573954218873e-02  0.0000000000000000e+00 0.0000000000000000e+00 0.0000000000000000e+00  -5.8915822700277237e-04 9.2696495561645615e-04 -3.7790109587251520e-03  -6.9707175507532915e-04 1.8579518590964119e-03 -8.6673711136343052e-03  -5.0427338236938102e-04 2.5594624654430125e-03 -1.2698679931152892e-02  -1.4386892919211384e-04 2.8372595568486262e-03 -1.4710183589254081e-02  3.1038715248745433e-04 2.5620468968192132e-03 -1.3872024662687183e-02  6.7375466491316146e-04 1.7827353583891169e-03 -9.6936217291967060e-03  6.4230095808580638e-04 9.0929990929235986e-04 -4.2096526630828277e-03  2.6929452845807830e-04 4.4476228083323527e-04 -1.3966106412370682e-03  3.4043176307519798e-05 3.7768909420858436e-04 -1.7026561832139788e-03  1.8253192437338555e-04 2.5413498624392083e-04 -1.8223969433088395e-03  4.1600536985926577e-04 -1.6369336234854732e-04 5.0356643996648034e-04  3.8644330976286259e-04 -6.2461480071778082e-04 3.4066564808795169e-03  2.3269189103860072e-04 -8.8704387463570784e-04 4.6235296291242513e-03  1.9857954861862486e-04 -1.0625992072064037e-03 5.3318287286650409e-03  2.0946315351219125e-04 -1.2573555961555005e-03 6.4621023041840460e-03  1.6565765401940199e-04 -1.4284026643681931e-03 7.4757094138410028e-03  5.5269641767500317e-05 -1.5761171161588158e-03 8.2238128023784541e-03  -2.0242206358345123e-04 -1.8741028995908115e-03 8.6581694049542267e-03  0.0000000000000000e+00 0.0000000000000000e+00 0.0000000000000000e+00  -3.8898077434774671e-04 5.6369257726124875e-04 -1.4717238405166613e-03  -4.5949340704890348e-04 1.1356238535268097e-03 -3.6862166915491755e-03  -3.3450681269861060e-04 1.5859745275126271e-03 -5.5842982508564152e-03  -9.8993129891431154e-05 1.7788441780070062e-03 -6.6087235060921781e-03  1.9742915483738144e-04 1.6268477403285355e-03 -6.3559075177027271e-03  4.3940153025440995e-04 1.1508245268004944e-03 -4.4691875628857592e-03  4.3142142610131642e-04 5.9832840588358615e-04 -1.8040183281231110e-03  1.9039316019752928e-04 2.9033267571353593e-04 -3.9705593624118755e-04  2.4829006234824247e-05 2.3806318539830028e-04 -6.1381612962818242e-04  1.1166545219605616e-04 1.6500104392198995e-04 -8.1445333362714612e-04  2.6899276976767339e-04 -8.9839082025095448e-05 2.5317420118177257e-04  2.5910280017529699e-04 -3.8088265729750931e-04 1.6954132616085020e-03  1.5475333722824732e-04 -5.5196363078868532e-04 2.2671201940281630e-03  1.2708654156378684e-04 -6.6534880995830861e-04 2.5597490349167800e-03  1.3704666249616751e-04 -7.8912376583738285e-04 3.1011470717131344e-03  1.1536120034331928e-04 -8.9925537406501243e-04 3.6059649370033362e-03  7.0571234639865804e-05 -9.8459465627069045e-04 4.0020313841281699e-03  -2.2868497742759141e-04 -1.2340517623485154e-03 4.3837303680227396e-03  0.0000000000000000e+00 0.0000000000000000e+00 0.0000000000000000e+00  7.3522899687259387e-07 -1.0988211666355038e-07 1.8847643061321527e-06  1.5884731240813266e-06 -3.7402404951059509e-07 8.3694594282103995e-06  2.5051500705975073e-06 -8.0703132765172334e-07 1.9961311723489941e-05  3.4606966836169683e-06 -1.4138397432971262e-06 3.6971987822212499e-05  4.4189120190019361e-06 -2.1953869491309841e-06 5.9513851562878390e-05  5.3416467804398275e-06 -3.1471783140412700e-06 8.7469931484113338e-05  6.1975217144227983e-06 -4.2590803397562831e-06 1.2050724715047778e-04  6.9693923375762638e-06 -5.5166355109692845e-06 1.5815272986163912e-04  7.6524609224647775e-06 -6.9033255776020206e-06 1.9989663148594917e-04  8.2442192078473740e-06 -8.4023309341916190e-06 2.4523248486663487e-04  8.7389843449270984e-06 -9.9965654935656980e-06 2.9362677848174186e-04  9.1328080671348389e-06 -1.1668168819945305e-05 3.4450005647620948e-04  9.4295547370848226e-06 -1.3399196723616555e-05 3.9727196305588708e-04  9.6390654772386437e-06 -1.5173275916449866e-05 4.5141722859883221e-04  9.7731952552414808e-06 -1.6976586819053682e-05 5.0647587304003734e-04  9.8461725881108444e-06 -1.8797852228438633e-05 5.6205876749893977e-04  9.8754867296517810e-06 -2.0628825253150396e-05 6.1786955586026759e-04  9.8812580400403349e-06 -2.2465049224796029e-05 6.7372306518392346e-04  0.0000000000000000e+00 0.0000000000000000e+00 0.0000000000000000e+00  7.3727342165325537e-07 -1.7706443979118169e-07 1.8548404857331634e-06  1.6338740706809612e-06 -4.4260371127800979e-07 8.3373442964503246e-06  2.5919343383275595e-06 -8.7956687569398079e-07 1.9928469728349444e-05  3.5914930743317442e-06 -1.4878621304911773e-06 3.6939554793826053e-05  4.5952796184631308e-06 -2.2678147753193564e-06 5.9482420865862089e-05  5.5635603209623358e-06 -3.2151329810600894e-06 8.7439374296508610e-05  6.4629886116703741e-06 -4.3206872983757983e-06 1.2047707513461605e-04  7.2746912311798395e-06 -5.5713174582887594e-06 1.5812275107792120e-04  7.9932297982849553e-06 -6.9510893448143236e-06 1.9986735146345749e-04  8.6163160126629812e-06 -8.4429013164699485e-06 2.4520486622868639e-04  9.1383103946269692e-06 -1.0029438127311137e-05 2.9360170294128059e-04  9.5547527606349674e-06 -1.1693316420572533e-05 3.4447810409865098e-04  9.8691986798075098e-06 -1.3417275296138589e-05 3.9725359405878640e-04  1.0091912475541158e-05 -1.5185189710291160e-05 4.5140275146542445e-04  1.0235357231770850e-05 -1.6983331685646105e-05 5.0646505169849520e-04  1.0314295176842577e-05 -1.8800656382769121e-05 5.6205068213343624e-04  1.0346930431388733e-05 -2.0629106414673946e-05 6.1786271376653476e-04  1.0354073450579396e-05 -2.2464179211807585e-05 6.7371593369247086e-04  0.0000000000000000e+00 0.0000000000000000e+00 0.0000000000000000e+00  -4.3954343369746686e-04 -5.5345518869795007e-04 -2.1580379629968028e-03  -4.7138518375124458e-04 -1.1091784649722490e-03 -4.4841914849000101e-03  -3.2341434825921081e-04 -1.5722950091877728e-03 -6.2054002269488380e-03  -7.5079448870971050e-05 -1.7906384313452143e-03 -6.8587812138888723e-03  2.2053063051453927e-04 -1.6816299956187429e-03 -6.1595792960570410e-03  4.4539434780683503e-04 -1.2524769292737768e-03 -4.0001760650567059e-03  4.0972325428935083e-04 -7.0478096623523615e-04 -1.4510564914909357e-03  1.5414630658159575e-04 -3.5987024359737847e-04 -3.9205900331690301e-04  -2.9747299334670384e-06 -2.8951471552461698e-04 -7.9570802924340837e-04  1.0321116462267682e-04 -2.4865401201624895e-04 -8.7870281182057407e-04  2.6264672992931448e-04 -3.0669129499881888e-05 3.5836065454928007e-04  2.4258756356619832e-04 2.6904487526119785e-04 1.7769150091342667e-03  1.5562782750641116e-04 4.7875794217466517e-04 2.3257003056452899e-03  1.5540608431173099e-04 6.3503867842650441e-04 2.8130341033221502e-03  1.6695487225499466e-04 8.0415054696664331e-04 3.5813333351380392e-03  1.2977008849482366e-04 9.6473147434122247e-04 4.2279865839133486e-03  6.2506915837546060e-05 1.1271243389323485e-03 4.6869110473886054e-03  -2.0316980132352157e-04 1.3673385965319133e-03 4.5929430607390565e-03  0.0000000000000000e+00 0.0000000000000000e+00 0.0000000000000000e+00  -6.3357111181794052e-04 -8.7940139151113431e-04 -4.6011817227523668e-03  -7.1471393645797590e-04 -1.8914859620451560e-03 -9.6724518102872161e-03  -4.9564533086749764e-04 -2.7461982028060081e-03 -1.3543307678685815e-02  -1.2721322508592368e-04 -3.1855034223354827e-03 -1.5153440287320881e-02  3.1366991450470193e-04 -3.0513031525874808e-03 -1.3865142011790503e-02  6.5939970504752586e-04 -2.3355832062488097e-03 -9.5012011956443227e-03  6.1857913952437780e-04 -1.3636831477247928e-03 -4.1501844241272129e-03  2.2853895823059009e-04 -7.0301397325954766e-04 -1.5799182908753026e-03  -2.4345752721998052e-05 -5.3220803863158453e-04 -2.0374741917354839e-03  1.3400594603920504e-04 -4.5749574914837738e-04 -2.1460764018745942e-03  3.9043364357412155e-04 -9.1523636693378085e-05 2.6907590623320683e-04  3.6655163927129444e-04 4.4061294458970631e-04 3.2461217603902532e-03  2.243457070433193