<?xml version="1.0"?>
<VTKFile type="UnstructuredGrid"  version="0.1"  >
<UnstructuredGrid>
<Piece  NumberOfPoints="760" NumberOfCells="3024">
<Points>
<DataArray  type="Float64"  NumberOfComponents="3"  format="ascii">0 0 0  0.05555555555555555 0 0  0.1111111111111111 0 0  0.1666666666666667 0 0  0.2222222222222222 0 0  0.2777777777777778 0 0  0.3333333333333333 0 0  0.3888888888888889 0 0  0.4444444444444444 0 0  0.5 0 0  0.5555555555555556 0 0  0.6111111111111112 0 0  0.6666666666666666 0 0  0.7222222222222222 0 0  0.7777777777777778 0 0  0.8333333333333334 0 0  0.8888888888888888 0 0  0.9444444444444444 0 0  1 0 0  0 0.01428571428571429 0  0.05555555555555555 0.01428571428571429 0  0.1111111111111111 0.01428571428571429 0  0.1666666666666667 0.01428571428571429 0  0.2222222222222222 0.01428571428571429 0  0.2777777777777778 0.01428571428571429 0  0.3333333333333333 0.01428571428571429 0  0.3888888888888889 0.01428571428571429 0  0.4444444444444444 0.01428571428571429 0  0.5 0.01428571428571429 0  0.5555555555555556 0.01428571428571429 0  0.6111111111111112 0.01428571428571429 0  0.6666666666666666 0.01428571428571429 0  0.7222222222222222 0.01428571428571429 0  0.7777777777777778 0.01428571428571429 0  0.8333333333333334 0.01428571428571429 0  0.8888888888888888 0.01428571428571429 0  0.9444444444444444 0.01428571428571429 0  1 0.01428571428571429 0  0 0.02857142857142857 0  0.05555555555555555 0.02857142857142857 0  0.1111111111111111 0.02857142857142857 0  0.1666666666666667 0.02857142857142857 0  0.2222222222222222 0.02857142857142857 0  0.2777777777777778 0.02857142857142857 0  0.3333333333333333 0.02857142857142857 0  0.3888888888888889 0.02857142857142857 0  0.4444444444444444 0.02857142857142857 0  0.5 0.02857142857142857 0  0.5555555555555556 0.02857142857142857 0  0.6111111111111112 0.02857142857142857 0  0.6666666666666666 0.02857142857142857 0  0.7222222222222222 0.02857142857142857 0  0.7777777777777778 0.02857142857142857 0  0.8333333333333334 0.02857142857142857 0  0.8888888888888888 0.02857142857142857 0  0.9444444444444444 0.02857142857142857 0  1 0.02857142857142857 0  0 0.04285714285714286 0  0.05555555555555555 0.04285714285714286 0  0.1111111111111111 0.04285714285714286 0  0.1666666666666667 0.04285714285714286 0  0.2222222222222222 0.04285714285714286 0  0.2777777777777778 0.04285714285714286 0  0.3333333333333333 0.04285714285714286 0  0.3888888888888889 0.04285714285714286 0  0.4444444444444444 0.04285714285714286 0  0.5 0.04285714285714286 0  0.5555555555555556 0.04285714285714286 0  0.6111111111111112 0.04285714285714286 0  0.6666666666666666 0.04285714285714286 0  0.7222222222222222 0.04285714285714286 0  0.7777777777777778 0.04285714285714286 0  0.8333333333333334 0.04285714285714286 0  0.8888888888888888 0.04285714285714286 0  0.9444444444444444 0.04285714285714286 0  1 0.04285714285714286 0  0 0.05714285714285715 0  0.05555555555555555 0.05714285714285715 0  0.1111111111111111 0.05714285714285715 0  0.1666666666666667 0.05714285714285715 0  0.2222222222222222 0.05714285714285715 0  0.2777777777777778 0.05714285714285715 0  0.3333333333333333 0.05714285714285715 0  0.3888888888888889 0.05714285714285715 0  0.4444444444444444 0.05714285714285715 0  0.5 0.05714285714285715 0  0.5555555555555556 0.05714285714285715 0  0.6111111111111112 0.05714285714285715 0  0.6666666666666666 0.05714285714285715 0  0.7222222222222222 0.05714285714285715 0  0.7777777777777778 0.05714285714285715 0  0.8333333333333334 0.05714285714285715 0  0.8888888888888888 0.05714285714285715 0  0.9444444444444444 0.05714285714285715 0  1 0.05714285714285715 0  0 0.07142857142857142 0  0.05555555555555555 0.07142857142857142 0  0.1111111111111111 0.07142857142857142 0  0.1666666666666667 0.07142857142857142 0  0.2222222222222222 0.07142857142857142 0  0.2777777777777778 0.07142857142857142 0  0.3333333333333333 0.07142857142857142 0  0.3888888888888889 0.07142857142857142 0  0.4444444444444444 0.07142857142857142 0  0.5 0.07142857142857142 0  0.5555555555555556 0.07142857142857142 0  0.6111111111111112 0.07142857142857142 0  0.6666666666666666 0.07142857142857142 0  0.7222222222222222 0.07142857142857142 0  0.7777777777777778 0.07142857142857142 0  0.8333333333333334 0.07142857142857142 0  0.8888888888888888 0.07142857142857142 0  0.9444444444444444 0.07142857142857142 0  1 0.07142857142857142 0  0 0.08571428571428573 0  0.05555555555555555 0.08571428571428573 0  0.1111111111111111 0.08571428571428573 0  0.1666666666666667 0.08571428571428573 0  0.2222222222222222 0.08571428571428573 0  0.2777777777777778 0.08571428571428573 0  0.3333333333333333 0.08571428571428573 0  0.3888888888888889 0.08571428571428573 0  0.4444444444444444 0.08571428571428573 0  0.5 0.08571428571428573 0  0.5555555555555556 0.08571428571428573 0  0.6111111111111112 0.08571428571428573 0  0.6666666666666666 0.08571428571428573 0  0.7222222222222222 0.08571428571428573 0  0.7777777777777778 0.08571428571428573 0  0.8333333333333334 0.08571428571428573 0  0.8888888888888888 0.08571428571428573 0  0.9444444444444444 0.08571428571428573 0  1 0.08571428571428573 0  0 0.1 0  0.05555555555555555 0.1 0  0.1111111111111111 0.1 0  0.1666666666666667 0.1 0  0.2222222222222222 0.1 0  0.2777777777777778 0.1 0  0.3333333333333333 0.1 0  0.3888888888888889 0.1 0  0.4444444444444444 0.1 0  0.5 0.1 0  0.5555555555555556 0.1 0  0.6111111111111112 0.1 0  0.6666666666666666 0.1 0  0.7222222222222222 0.1 0  0.7777777777777778 0.1 0  0.8333333333333334 0.1 0  0.8888888888888888 0.1 0  0.9444444444444444 0.1 0  1 0.1 0  0 0 0.01  0.05555555555555555 0 0.01  0.1111111111111111 0 0.01  0.1666666666666667 0 0.01  0.2222222222222222 0 0.01  0.2777777777777778 0 0.01  0.3333333333333333 0 0.01  0.3888888888888889 0 0.01  0.4444444444444444 0 0.01  0.5 0 0.01  0.5555555555555556 0 0.01  0.6111111111111112 0 0.01  0.6666666666666666 0 0.01  0.7222222222222222 0 0.01  0.7777777777777778 0 0.01  0.8333333333333334 0 0.01  0.8888888888888888 0 0.01  0.9444444444444444 0 0.01  1 0 0.01  0 0.01428571428571429 0.01  0.05555555555555555 0.01428571428571429 0.01  0.1111111111111111 0.01428571428571429 0.01  0.1666666666666667 0.01428571428571429 0.01  0.2222222222222222 0.01428571428571429 0.01  0.2777777777777778 0.01428571428571429 0.01  0.3333333333333333 0.01428571428571429 0.01  0.3888888888888889 0.01428571428571429 0.01  0.4444444444444444 0.01428571428571429 0.01  0.5 0.01428571428571429 0.01  0.5555555555555556 0.01428571428571429 0.01  0.6111111111111112 0.01428571428571429 0.01  0.6666666666666666 0.01428571428571429 0.01  0.7222222222222222 0.01428571428571429 0.01  0.7777777777777778 0.01428571428571429 0.01  0.8333333333333334 0.01428571428571429 0.01  0.8888888888888888 0.01428571428571429 0.01  0.9444444444444444 0.01428571428571429 0.01  1 0.01428571428571429 0.01  0 0.02857142857142857 0.01  0.05555555555555555 0.02857142857142857 0.01  0.1111111111111111 0.02857142857142857 0.01  0.1666666666666667 0.02857142857142857 0.01  0.2222222222222222 0.02857142857142857 0.01  0.2777777777777778 0.02857142857142857 0.01  0.3333333333333333 0.02857142857142857 0.01  0.3888888888888889 0.02857142857142857 0.01  0.4444444444444444 0.02857142857142857 0.01  0.5 0.02857142857142857 0.01  0.5555555555555556 0.02857142857142857 0.01  0.6111111111111112 0.02857142857142857 0.01  0.6666666666666666 0.02857142857142857 0.01  0.7222222222222222 0.02857142857142857 0.01  0.7777777777777778 0.02857142857142857 0.01  0.8333333333333334 0.02857142857142857 0.01  0.8888888888888888 0.02857142857142857 0.01  0.9444444444444444 0.02857142857142857 0.01  1 0.02857142857142857 0.01  0 0.04285714285714286 0.01  0.05555555555555555 0.04285714285714286 0.01  0.1111111111111111 0.04285714285714286 0.01  0.1666666666666667 0.04285714285714286 0.01  0.2222222222222222 0.04285714285714286 0.01  0.2777777777777778 0.04285714285714286 0.01  0.3333333333333333 0.04285714285714286 0.01  0.3888888888888889 0.04285714285714286 0.01  0.4444444444444444 0.04285714285714286 0.01  0.5 0.04285714285714286 0.01  0.5555555555555556 0.04285714285714286 0.01  0.6111111111111112 0.04285714285714286 0.01  0.6666666666666666 0.04285714285714286 0.01  0.7222222222222222 0.04285714285714286 0.01  0.7777777777777778 0.04285714285714286 0.01  0.8333333333333334 0.04285714285714286 0.01  0.8888888888888888 0.04285714285714286 0.01  0.9444444444444444 0.04285714285714286 0.01  1 0.04285714285714286 0.01  0 0.05714285714285715 0.01  0.05555555555555555 0.05714285714285715 0.01  0.1111111111111111 0.05714285714285715 0.01  0.1666666666666667 0.05714285714285715 0.01  0.2222222222222222 0.05714285714285715 0.01  0.2777777777777778 0.05714285714285715 0.01  0.3333333333333333 0.05714285714285715 0.01  0.3888888888888889 0.05714285714285715 0.01  0.4444444444444444 0.05714285714285715 0.01  0.5 0.05714285714285715 0.01  0.5555555555555556 0.05714285714285715 0.01  0.6111111111111112 0.05714285714285715 0.01  0.6666666666666666 0.05714285714285715 0.01  0.7222222222222222 0.05714285714285715 0.01  0.7777777777777778 0.05714285714285715 0.01  0.8333333333333334 0.05714285714285715 0.01  0.8888888888888888 0.05714285714285715 0.01  0.9444444444444444 0.05714285714285715 0.01  1 0.05714285714285715 0.01  0 0.07142857142857142 0.01  0.05555555555555555 0.07142857142857142 0.01  0.1111111111111111 0.07142857142857142 0.01  0.1666666666666667 0.07142857142857142 0.01  0.2222222222222222 0.07142857142857142 0.01  0.2777777777777778 0.07142857142857142 0.01  0.3333333333333333 0.07142857142857142 0.01  0.3888888888888889 0.07142857142857142 0.01  0.4444444444444444 0.07142857142857142 0.01  0.5 0.07142857142857142 0.01  0.5555555555555556 0.07142857142857142 0.01  0.6111111111111112 0.07142857142857142 0.01  0.6666666666666666 0.07142857142857142 0.01  0.7222222222222222 0.07142857142857142 0.01  0.7777777777777778 0.07142857142857142 0.01  0.8333333333333334 0.07142857142857142 0.01  0.8888888888888888 0.07142857142857142 0.01  
[...]
<PointData  Vectors="f_36"> 
<DataArray  type="Float64"  Name="f_36"  NumberOfComponents="3" format="ascii">0.0000000000000000e+00 0.0000000000000000e+00 0.0000000000000000e+00  -2.0732857045170166e-03 3.8570427262213953e-03 -8.3657996308775222e-03  -2.8734945419464164e-03 8.0316978033370470e-03 -2.0014627480894887e-02  -2.6815248614468308e-03 1.1994707263784887e-02 -3.2719543275334953e-02  -1.3409727096267811e-03 1.4377418383350394e-02 -4.1741701221760248e-02  2.5572109309251627e-04 1.4450774828441674e-02 -4.2780873185563180e-02  5.6346382934677241e-04 1.3446418980850732e-02 -3.8727616304067271e-02  -4.7429761272104223e-05 1.3136604314811904e-02 -3.7739116171844465e-02  -1.8274950174187188e-04 1.3343201824245267e-02 -3.9397010027886710e-02  -8.5920545946697088e-05 1.3347341166890958e-02 -3.9588665340038708e-02  -1.9262305921026996e-04 1.3376708095574256e-02 -3.9936544447966717e-02  -3.8562260791648647e-05 1.3350493088938755e-02 -4.0785389149077401e-02  7.6164455843122809e-05 1.3048386321352013e-02 -3.9945870364059673e-02  -2.6093081019347322e-04 1.3099739826514290e-02 -3.9881723259659316e-02  -4.4393203422475456e-04 1.3683434622032061e-02 -4.2265156600513644e-02  -2.5516951768492165e-04 1.4167071210926850e-02 -4.4341014157722902e-02  8.4321696008173860e-05 1.4343580863504546e-02 -4.5435202700380366e-02  7.3164162364520264e-04 1.4380436251395205e-02 -4.5867043641680844e-02  1.5827055922492945e-03 1.5141975626955765e-02 -4.5163363579566948e-02  0.0000000000000000e+00 0.0000000000000000e+00 0.0000000000000000e+00  -1.9596131305666064e-03 3.2341279046534978e-03 -4.9727492029090761e-03  -2.7241103819170324e-03 7.0170559700474654e-03 -1.2844713763137595e-02  -2.6120645736475126e-03 1.0748070342985411e-02 -2.1881765080304434e-02  -1.4250990761031535e-03 1.3133661978153143e-02 -2.8651323978007071e-02  1.3315910043161001e-04 1.3370732269941229e-02 -2.9640212885584653e-02  5.8867708949238140e-04 1.2464525606806512e-02 -2.6575343651633918e-02  1.7742586192783359e-06 1.2122164289186237e-02 -2.5835612850496383e-02  -2.2005520016941396e-04 1.2310597129818496e-02 -2.7292838674303890e-02  -9.2889797939251279e-05 1.2331415136227108e-02 -2.7541479535337358e-02  -1.7834094291283606e-04 1.2359327267934010e-02 -2.7863571444433893e-02  -8.1200344698746904e-05 1.2358489736994405e-02 -2.8726455345948435e-02  7.2165159939904160e-05 1.2086196414750153e-02 -2.8216262995733560e-02  -2.1696708853829959e-04 1.2092262295149784e-02 -2.8128594887825611e-02  -4.5277958812937923e-04 1.2614388069986033e-02 -2.9983005481690386e-02  -2.9304414712458526e-04 1.3088075347231101e-02 -3.1649802391806446e-02  -1.0434206692353292e-05 1.3281879002216813e-02 -3.2606500712661968e-02  4.2534704255934306e-04 1.3356516667165107e-02 -3.3191843201979793e-02  1.6017406449909714e-03 1.4473096339280565e-02 -3.3389779419088210e-02  0.0000000000000000e+00 0.0000000000000000e+00 0.0000000000000000e+00  -1.1904602448750813e-03 1.9089219184717501e-03 -2.0123812331803385e-03  -1.6874053313225648e-03 4.3689977409489544e-03 -5.6882270023478091e-03  -1.6519759824289177e-03 6.9494747874765299e-03 -1.0129993957817758e-02  -9.5908295678611593e-04 8.7167403683229786e-03 -1.3665522146779449e-02  5.1554750112225978e-06 8.9842798577593579e-03 -1.4381678844024031e-02  3.4048865038012796e-04 8.3423381884046056e-03 -1.2919435186078297e-02  -2.1124891121092030e-05 8.0693354568955183e-03 -1.2643328799575620e-02  -1.9687309010676276e-04 8.2254247048610292e-03 -1.3610654606777964e-02  -1.1087875793681599e-04 8.2597821521018765e-03 -1.3924353514809959e-02  -1.5618487744018835e-04 8.2870414728107942e-03 -1.4246514392309034e-02  -1.1632037069029114e-04 8.3231877156806390e-03 -1.4936610938764803e-02  -9.5198421735927446e-06 8.1447344870216095e-03 -1.4891543502229775e-02  -1.7519216847419449e-04 8.1179800398185429e-03 -1.4977304495357597e-02  -3.4372494169074676e-04 8.4776665611020503e-03 -1.6104652938302228e-02  -2.5562641106822672e-04 8.8351065044433227e-03 -1.7162040540282961e-02  -9.6237466200317005e-05 9.0085407732997964e-03 -1.7865879135260873e-02  4.1220930174859495e-05 9.0583326170621016e-03 -1.8429585053919909e-02  1.6692269613409845e-03 1.0596175107059453e-02 -1.9199275157320232e-02  0.0000000000000000e+00 0.0000000000000000e+00 0.0000000000000000e+00  -2.1332378364193107e-05 1.7592032098077807e-06 -3.1744848685756484e-05  -4.0537785474827279e-05 5.5641463293610788e-06 -1.1898951862692404e-04  -5.7644463933615712e-05 1.1396839434980328e-05 -2.5740467143249590e-04  -7.2669312936272129e-05 1.9004850533588817e-05 -4.4097466348091421e-04  -8.5740793837208224e-05 2.8184208763239141e-05 -6.6398088597411319e-04  -9.7010081059027893e-05 3.8739584688640877e-05 -9.2113778436777336e-04  -1.0661446577682933e-04 5.0488537324731104e-05 -1.2075900906186807e-03  -1.1467620630194200e-04 6.3259964652942594e-05 -1.5188257238063546e-03  -1.2132183230292432e-04 7.6892234515736971e-05 -1.8506655003853777e-03  -1.2668354901382658e-04 9.1234747438397973e-05 -2.1993053509090535e-03  -1.3089367942456897e-04 1.0614952562686849e-04 -2.5613128140581838e-03  -1.3408827265551238e-04 1.2151159329008992e-04 -2.9336272445876586e-03  -1.3640399121130648e-04 1.3721025496196134e-04 -3.3135823982548564e-03  -1.3797314959331490e-04 1.5314908344180728e-04 -3.6988891895575467e-03  -1.3893206207774060e-04 1.6924572993826055e-04 -4.0876221992366636e-03  -1.3942723723424396e-04 1.8543444155584820e-04 -4.4782557585001737e-03  -1.3961234781243519e-04 2.0166827582705562e-04 -4.8696917908847576e-03  -1.3964573273538426e-04 2.1792097025935393e-04 -5.2612773918413753e-03  0.0000000000000000e+00 0.0000000000000000e+00 0.0000000000000000e+00  -2.0112867991830239e-05 2.9075205501242952e-06 -3.1413256925059887e-05  -4.0058501458397736e-05 6.5965811264235427e-06 -1.1851084583494798e-04  -5.7858276447902121e-05 1.2309247543676108e-05 -2.5686502787382299e-04  -7.3507262749295302e-05 1.9798980700262775e-05 -4.4037966100762176e-04  -8.7136116059113004e-05 2.8869605827926539e-05 -6.6333600895998157e-04  -9.8899681609841908e-05 3.9325494898967321e-05 -9.2044922157103598e-04  -1.0894121328906115e-04 5.0982055247053644e-05 -1.2068640839137798e-03  -1.1738583367972797e-04 6.3667926274339875e-05 -1.5180673414421277e-03  -1.2436138455391990e-04 7.7222398257773196e-05 -1.8498791347481311e-03  -1.3000325841712858e-04 9.1494891982343051e-05 -2.1984952307129144e-03  -1.3444700349178428e-04 1.0634750165528158e-04 -2.5604826896708987e-03  -1.3783149285544625e-04 1.2165561780240580e-04 -2.9327803989810130e-03  -1.4029769391274554e-04 1.3730810905444193e-04 -3.3127217827100988e-03  -1.4198196795560982e-04 1.5320834192365671e-04 -3.6980172538038461e-03  -1.4302335751860691e-04 1.6927477895221121e-04 -4.0867408585597825e-03  -1.4357193160058473e-04 1.8544231611183226e-04 -4.4773664651991596e-03  -1.4378571530925476e-04 2.0166419385759594e-04 -4.8687951344532233e-03  -1.4382782331656699e-04 2.1791261630957080e-04 -5.2603726022143775e-03  0.0000000000000000e+00 0.0000000000000000e+00 0.0000000000000000e+00  -1.3430632088643436e-03 -2.1501553235242386e-03 -3.1216312228409767e-03  -1.7290892516517945e-03 -4.7799908046719797e-03 -7.4450886087028276e-03  -1.5715709319886364e-03 -7.5514789998547107e-03 -1.2110290105558509e-02  -7.9070456111884674e-04 -9.5252564037358860e-03 -1.5351949551605449e-02  1.1227345823250828e-04 -9.9461942007778130e-03 -1.5555754440771504e-02  2.6879181561681513e-04 -9.2782720883674268e-03 -1.3974740708819020e-02  -1.0737963830125258e-04 -8.8883547061195771e-03 -1.3948901089421999e-02  -2.0477816491319592e-04 -9.0011313822387414e-03 -1.4934670732136062e-02  -1.4429273278957101e-04 -9.0185004714434490e-03 -1.5170374172714433e-02  -2.0378680155881532e-04 -8.9930807465445160e-03 -1.5521272067546579e-02  -1.2926246906088909e-04 -9.0239769927569751e-03 -1.6178870861256574e-02  -3.5527176530979119e-05 -8.8485958147638388e-03 -1.6120077736018954e-02  -2.0877029267230595e-04 -8.6911633257296689e-03 -1.6218564359995229e-02  -3.5512828960345387e-04 -8.9024620950807140e-03 -1.7309498964668872e-02  -3.0027932863211894e-04 -9.2462994292202127e-03 -1.8353797169859808e-02  -1.4964892376229111e-04 -9.5181433537473766e-03 -1.9149003232567057e-02  1.3167708578436818e-04 -9.8289109505817936e-03 -1.9672306533839470e-02  1.1161712744022446e-03 -1.1188118381241305e-02 -1.9452206862648924e-02  0.0000000000000000e+00 0.0000000000000000e+00 0.0000000000000000e+00  -2.0992887891427849e-03 -2.7959104075422534e-03 -6.2200970190163544e-03  -2.7532934730661322e-03 -6.4516826675016358e-03 -1.4648737335302635e-02  -2.5291138057442078e-03 -1.0345453378235128e-02 -2.3697500028468068e-02  -1.3019463870525641e-03 -1.3239965092851672e-02 -3.0043109962930605e-02  1.9542110095139854e-04 -1.4042332379125064e-02 -3.0610445175063866e-02  5.3864380550323616e-04 -1.3227395725119820e-02 -2.7501322155539486e-02  -8.2001769943840594e-05 -1.2626035990552353e-02 -2.6966450283428273e-02  -2.8016270632894534e-04 -1.2719173127287346e-02 -2.8436679193976265e-02  -1.5270534570973202e-04 -1.2748283533010635e-02 -2.8625708362764863e-02  -2.4236148095032367e-04 -1.2706978779735582e-02 -2.8914923038185391e-02  -1.4777244039191305e-04 -1.2744910470212848e-02 -2.9783825399837042e-02  3.0816144972769945e-05 -1.2521628431368267e-02 -2.9376313450185203e-02  -2.2749865266875400e-04 -1.2279990968452215e-02 -2.9148143899636950e-02  -4.8810512017421370e-04 -1.2515587294525322e-02 -3.0757936491190775e-02  -3.9199142832483367e-04 -1.2978578143228295e-02 -3.2396160329961766e-02  -1.2170865636425033e-04 -1.3389318659577034e-02 -3.3584141954167944e-02  3.3788631644637878e-04 -1.3914740223556855e-02 -3.4275467377748753e-02  1.0495726459400043e-03 -1.6016326281012152e-02 -3.3792763479044911e-02  0.0000000000000000e+00 0.0000000000000000e+00 0.0000000000000000e+00  -2.0763132607364175e-03 -2.7166802476458656e-03 -8.6976665400051653e-03  -2.8216049551323648e-03 -6.5909964710914835e-03 -2.0341208693064997e-02  -2.6928048486103157e-03 -1.0764440971079052e-02 -3.2823939675417045e-02  -1.5101182086964730e-03 -1.3969890815517862e-02 -4.1743657483934625e-02  1.1570520245984514e-04 -1.4990947761547690e-02 -4.3036837845444743e-02  6.4963098818757875e-04 -1.4206720527633688e-02 -3.9139485807185799e-02  -3.2601641455745219e-05 -1.3538612597495097e-02 -3.8068725317018937e-02  -3.3864894793272086e-04 -1.3600744531222189e-02 -3.9707183910304776e-02  -1.5708830376547317e-04 -1.3629100193014122e-02 -3.9928629307927212e-02  -2.4007952817304144e-04 -1.3583309350796068e-02 -4.0156501151357375e-02  -1.9813039163052500e-04 -1.3627306041939312e-02 -4.1107869064467145e-02  3.8298649692920968e-05 -1.3399985093981945e-02 -4.0527181734275351e-02  -1.8441505590325737e-04 -1.3126113071087350e-02 -4.0066273502204465e-02  -5.0953490071006964e-04 -1.3344111937292610e-02 -4.1933739281852102e-02  -4.0348043340693898e-04 -1.3826934772125508e-02 -4.4007950730765688e-02  -7.9854323221358354e-05 -1.4294573796256866e-02 -4.5549002117643712e-02  5.6634127113877717e-04 -1.4863913235944305e-02 -4.6549341838998295e-02  1.1779910364739655e-03 -1.7246025564182473e-02 -4.6778083735528775e-02  0.0000000000000000e+00 0.0000000000000000e+00 0.0000000000000000e+00  -8.4034511300716997e-04 1.4810151766412925e-03 -8.0281833210699167e-03  -1.2749201409893384e-03 3.3027675869600173e-03 -1.9594851902464221e-02  -1.2585324098282930e-03 5.0737477468859342e-03 -3.2259775425601628e-02  -7.1902267153164620e-04 6.2026563128173015e-03 -4.1339384532324351e-02  2.9732514286439945e-05 6.2954993134269575e-03 -4.2456727487868717e-02  2.7861326515594233e-04 5.8349260751784917e-03 -3.8385435503948337e-02  4.1942723367948995e-05 5.6692990719554451e-03 -3.7341093205899976e-02  -5.8413954671089806e-05 5.7792977055660822e-03 -3.9008369935801389e-02  -2.7513828669587091e-05 5.7978412822003037e-03 -3.9213729821547569e-02  -8.2464916065856650e-05 5.8184479869214569e-03 -3.9550920272749431e-02  -3.5309123071135582e-05 5.8327609402814302e-03 -4.0418600454277809e-02  3.8096350931023928e-05 5.6999720523821162e-03 -3.9586105256276038e-02  -6.5888911051631587e-05 5.7024250315353218e-03 -3.9482150201253952e-02  -1.2916269793504095e-04 5.9741522811535630e-03 -4.1845547651916719e-02  -2.3614927829411088e-05 6.2158955749618931e-03 -4.3932406747844842e-02  2.1276337957451622e-04 6.3242651223272481e-03 -4.5036051902315667e-02  7.2626226901600216e-04 6.4896497252981359e-03 -4.5466244447905577e-02  1.4343515139158443e-03 7.3533633140696903e-03 -4.4761457284079480e-02  0.0000000000000000e+00 0.0000000000000000e+00 0.0000000000000000e+00  -8.9751925585766887e-04 1.3042134405107887e-03 -4.7309549772820746e-03  -1.3190097380995467e-03 2.8884185749133390e-03 -1.2519148957904097e-02  -1.3052106463157390e-03 4.4692571326829912e-03 -2.1502514125235871e-02  -7.7323993288630380e-04 5.5062991557775637e-03 -2.8294316166780034e-02  -2.2201958855780790e-06 5.6413149182023550e-03 -2.9326916269806314e-02  2.9913103160090940e-04 5.2655638046752214e-03 -2.6232432037957852e-02  5.5756078623471834e-05 5.1103327152626447e-03 -2.5441837397078119e-02  -8.0733429750539219e-05 5.1965672672369644e-03 -2.6915912925080630e-02  -3.6561828076134773e-05 5.2183144851595800e-03 -2.7181573555951539e-02  -7.9928458673095677e-05 5.2375192037631101e-03 -2.7490793090887748e-02  -4.7157913975596299e-05 5.2510861773550910e-03 -2.8370071094052301e-02  3.7359210461754259e-05 5.1410866196847588e-03 -2.7870634021845087e-02  -6.5651479574664484e-05 5.1383206178719281e-03 -2.7750878598911895e-02  -1.5951507059337234e-04 5.3692537037751120e-03 -2.9590937711387582e-02  -6.6936305042818449e-05 5.5857070710375548e-03 -3.1268957962830038e-02  1.2514343682274606e-04 5.6789819512130905e-03 -3.2230507706232120e-02  4.6395128179012481e-04 5.7923922365655297e-03 -3.2823764629670314e-02  1.3414669624550752e-03 6.7147130508169702e-03 -3.3119985997639018e-02  0.0000000000000000e+00 0.0000000000000000e+00 0.0000000000000000e+00  -5.9109415498580415e-04 7.8716625099445900e-04 -1.7244822781797935e-03  -8.6464535716238575e-04 1.7552552948931215e-03 -5.1736857501459782e-03  -8.6249779215251160e-04 2.7555939234819942e-03 -9.4117721183917327e-03  -5.3047802894080030e-04 3.4357032402759441e-03 -1.2842293482746559e-02  -3.3950058839556340e-05 3.5534109245968265e-03 -1.3546714607639641e-02  1.7937816970629516e-04 3.3325938389338087e-03 -1.2080258716758163e-02  2.3394020886784937e-05 3.2347304964254167e-03 -1.1786593551094439e-02  -8.1771362900232760e-05 3.2912074542091278e-03 -1.2768663871559158e-02  -5.1140435896983149e-05 3.3118946959565928e-03 -1.3096633865209433e-02  -7.3155414325304073e-05 3.3299074551740408e-03 -1.3410546495954028e-02  -5.9234057586734537e-05 3.3470861316736008e-03 -1.4113769702647454e-02  -2.3049793369062600e-06 3.2866692288506193e-03 -1.4086544322778474e-02  -6.6614828185754171e-05 3.2858655580057456e-03 -1.4153204039995353e-02  -1.3965316693122560e-04 3.4320419337332581e-03 -1.5256301274543594e-02  -8.7753943986468378e-05 3.5766582273163024e-03 -1.6304766872974753e-02  1.7947533525373999e-05 3.6472989627094571e-03 -1.7003917035614494e-02  1.3672669170563075e-04 3.6873630049873772e-03 -1.7568196295899903e-02  1.1822415155796216e-03 4.4951424940914272e-03 -1.8364551995366532e-02  0.0000000000000000e+00 0.0000000000000000e+00 0.0000000000000000e+00  -1.0050599627667698e-05 1.6317071891830369e-06 -3.0858987835152919e-05  -1.9687370647129813e-05 5.3959695751308521e-06 -1.1818241082951615e-04  -2.8200087382532936e-05 1.1162406258289126e-05 -2.5668537854670617e-04  -3.5677836134748371e-05 1.8712347564146818e-05 -4.4034321046837721e-04  -4.2185899002940942e-05 2.7839125428873921e-05 -6.6343190141717921e-04  -4.7799284715751824e-05 3.8348030979682178e-05 -9.2066512330209584e-04  -5.2587097344522867e-05 5.0055915924695376e-05 -1.2071880332690365e-03  -5.6610244952701523e-05 6.2790839003329675e-05 -1.5184889414777555e-03  -5.9930835157997423e-05 7.6391027013177618e-05 -1.8503884877790128e-03  -6.2614089115586079e-05 9.0705706504315412e-05 -2.1990824387235247e-03  -6.4725338282823900e-05 1.0559656304086092e-04 -2.5611383029213002e-03  -6.6331492409137403e-05 1.2093843695329139e-04 -2.9334952927305888e-03  -6.7500157426748111e-05 1.3662022539608320e-04 -3.3134871566717372e-03  -6.8296871779719077e-05 1.5254504564608110e-04 -3.6988249055848518e-03  -6.8788554395031584e-05 1.6863043054391445e-04 -4.0875829043200088e-03  -6.9047001182375993e-05 1.8481044775247026e-04 -4.4782350872609837e-03  -6.9147543859082614e-05 2.0103772719967935e-04 -4.8696830180659867e-03  -6.9166626041112269e-05 2.1728445135679828e-04 -5.2612709146142404e-03  0.0000000000000000e+00 0.0000000000000000e+00 0.0000000000000000e+00  -1.0171597348679574e-05 2.4693284935574736e-06 -3.0351757442508089e-05  -2.0481775526362705e-05 6.0786096713447760e-06 -1.1762269727496767e-04  -2.9531441699048179e-05 1.1760774715334501e-05 -2.5607547130066872e-04  -3.7489860287072014e-05 1.9233980828064208e-05 -4.3968543255037908e-04  -4.4423358199944530e-05 2.8290227430477901e-05 -6.6273101386653700e-04  -5.0409873076446193e-05 3.8734451098142420e-05 -9.1992681790502415e-04  -5.5522200697531431e-05 5.0382478310054683e-05 -1.2064179583733861e-03  -5.9824109968857529e-05 6.3062032825702904e-05 -1.5176918609430294e-03  -6.3380062143016000e-05 7.6611717292399362e-05 -1.8495685990831377e-03  -6.6258302242250421e-05 9.0880870246965199e-05 -2.1982436431366259e-03  -6.8527457999888669e-05 1.0573121431423184e-04 -2.5602840508239045e-03  -7.0257750298351337e-05 1.2103776193470599e-04 -2.9326285861544636e-03  -7.1520576872012120e-05 1.3668927388676082e-04 -3.3126105428449302e-03  -7.2385301004366105e-05 1.5258875802240838e-04 -3.6979404764684526e-03  -7.2922509729354026e-05 1.6865411155125734e-04 -4.0866923485338149e-03  -7.3208211189337984e-05 1.8481978554720104e-04 -4.4773396114426095e-03  -7.3322434816824582e-05 2.0103845508244434e-04 -4.8687830421295653e-03  -7.3346605024571782e-05 2.1728129073473647e-04 -5.2603671988602878e-03  0.0000000000000000e+00 0.0000000000000000e+00 0.0000000000000000e+00  -6.6830141208797697e-04 -7.6959120398867851e-04 -2.7369514209974106e-03  -8.9960998816572242e-04 -1.6839742291724514e-03 -6.5933037062163692e-03  -8.5786252796843387e-04 -2.6619882358025261e-03 -1.0743638179765405e-02  -4.8982491328950883e-04 -3.3643924950819653e-03 -1.3587187073237857e-02  1.0763609304322429e-06 -3.5231236417559179e-03 -1.3631464139726459e-02  1.5596366582321664e-04 -3.2875398140331268e-03 -1.2082506378063851e-02  -2.5317367585192850e-05 -3.1337382908892472e-03 -1.2122030850083456e-02  -1.1391493292878611e-04 -3.1544925949070850e-03 -1.3128222956638564e-02  -8.6941019712703671e-05 -3.1479201365831487e-03 -1.3360001403827282e-02  -1.1338339652308469e-04 -3.1269143858878028e-03 -1.3705209770675646e-02  -8.7342544921225484e-05 -3.1240322995201219e-03 -1.4366340697685165e-02  -2.5420552476835619e-05 -3.0497820396222018e-03 -1.4328518223036570e-02  -9.2287344072408022e-05 -2.9770540966146640e-03 -1.4441906185167594e-02  -1.7013866728820133e-04 -3.0272531953624703e-03 -1.5511522838256587e-02  -1.3607938365080383e-04 -3.1303998813239854e-03 -1.6502761397267536e-02  -3.5046892616227456e-05 -3.2197283560909109e-03 -1.7238548697001796e-02  1.1954599565559339e-04 -3.3672775762275372e-03 -1.7678961388963094e-02  8.6480945532028540e-04 -3.9586387506974335e-03 -1.6952621909335028e-02  0.0000000000000000e+00 0.0000000000000000e+00 0.0000000000000000e+00  -9.5227035503491115e-04 -1.2237883141917756e-03 -5.9754839843610009e-03  -1.3401160015612090e-03 -2.8621581716362578e-03 -1.4245419663800191e-02  -1.2895442364650653e-03 -4.6257639407285807e-03 -2.3091977733571373e-02  -7.4572601469413550e-04 -5.9556466147142337e-03 -2.9287951745594381e-02  1.2293617066822938e-05 -6.3461295060670119e-03 -2.9774726870248534e-02  2.7791715579770246e-04 -5.9855451087478225e-03 -2.6616326468208804e-02  -2.2287282671876967e-06 -5.6962629416065676e-03 -2.6073177908279073e-02  -1.5266348704304087e-04 -5.7162758478183353e-03 -2.7580700924429838e-02  -1.0339487155897780e-04 -5.7166407661104228e-03 -2.7784836749297867e-02  -1.4195565353784085e-04