<?xml version="1.0"?>
<VTKFile type="UnstructuredGrid"  version="0.1"  >
<UnstructuredGrid>
<Piece  NumberOfPoints="760" NumberOfCells="3024">
<Points>
<DataArray  type="Float64"  NumberOfComponents="3"  format="ascii">0 0 0  0.05555555555555555 0 0  0.1111111111111111 0 0  0.1666666666666667 0 0  0.2222222222222222 0 0  0.2777777777777778 0 0  0.3333333333333333 0 0  0.3888888888888889 0 0  0.4444444444444444 0 0  0.5 0 0  0.5555555555555556 0 0  0.6111111111111112 0 0  0.6666666666666666 0 0  0.7222222222222222 0 0  0.7777777777777778 0 0  0.8333333333333334 0 0  0.8888888888888888 0 0  0.9444444444444444 0 0  1 0 0  0 0.01428571428571429 0  0.05555555555555555 0.01428571428571429 0  0.1111111111111111 0.01428571428571429 0  0.1666666666666667 0.01428571428571429 0  0.2222222222222222 0.01428571428571429 0  0.2777777777777778 0.01428571428571429 0  0.3333333333333333 0.01428571428571429 0  0.3888888888888889 0.01428571428571429 0  0.4444444444444444 0.01428571428571429 0  0.5 0.01428571428571429 0  0.5555555555555556 0.01428571428571429 0  0.6111111111111112 0.01428571428571429 0  0.6666666666666666 0.01428571428571429 0  0.7222222222222222 0.01428571428571429 0  0.7777777777777778 0.01428571428571429 0  0.8333333333333334 0.01428571428571429 0  0.8888888888888888 0.01428571428571429 0  0.9444444444444444 0.01428571428571429 0  1 0.01428571428571429 0  0 0.02857142857142857 0  0.05555555555555555 0.02857142857142857 0  0.1111111111111111 0.02857142857142857 0  0.1666666666666667 0.02857142857142857 0  0.2222222222222222 0.02857142857142857 0  0.2777777777777778 0.02857142857142857 0  0.3333333333333333 0.02857142857142857 0  0.3888888888888889 0.02857142857142857 0  0.4444444444444444 0.02857142857142857 0  0.5 0.02857142857142857 0  0.5555555555555556 0.02857142857142857 0  0.6111111111111112 0.02857142857142857 0  0.6666666666666666 0.02857142857142857 0  0.7222222222222222 0.02857142857142857 0  0.7777777777777778 0.02857142857142857 0  0.8333333333333334 0.02857142857142857 0  0.8888888888888888 0.02857142857142857 0  0.9444444444444444 0.02857142857142857 0  1 0.02857142857142857 0  0 0.04285714285714286 0  0.05555555555555555 0.04285714285714286 0  0.1111111111111111 0.04285714285714286 0  0.1666666666666667 0.04285714285714286 0  0.2222222222222222 0.04285714285714286 0  0.2777777777777778 0.04285714285714286 0  0.3333333333333333 0.04285714285714286 0  0.3888888888888889 0.04285714285714286 0  0.4444444444444444 0.04285714285714286 0  0.5 0.04285714285714286 0  0.5555555555555556 0.04285714285714286 0  0.6111111111111112 0.04285714285714286 0  0.6666666666666666 0.04285714285714286 0  0.7222222222222222 0.04285714285714286 0  0.7777777777777778 0.04285714285714286 0  0.8333333333333334 0.04285714285714286 0  0.8888888888888888 0.04285714285714286 0  0.9444444444444444 0.04285714285714286 0  1 0.04285714285714286 0  0 0.05714285714285715 0  0.05555555555555555 0.05714285714285715 0  0.1111111111111111 0.05714285714285715 0  0.1666666666666667 0.05714285714285715 0  0.2222222222222222 0.05714285714285715 0  0.2777777777777778 0.05714285714285715 0  0.3333333333333333 0.05714285714285715 0  0.3888888888888889 0.05714285714285715 0  0.4444444444444444 0.05714285714285715 0  0.5 0.05714285714285715 0  0.5555555555555556 0.05714285714285715 0  0.6111111111111112 0.05714285714285715 0  0.6666666666666666 0.05714285714285715 0  0.7222222222222222 0.05714285714285715 0  0.7777777777777778 0.05714285714285715 0  0.8333333333333334 0.05714285714285715 0  0.8888888888888888 0.05714285714285715 0  0.9444444444444444 0.05714285714285715 0  1 0.05714285714285715 0  0 0.07142857142857142 0  0.05555555555555555 0.07142857142857142 0  0.1111111111111111 0.07142857142857142 0  0.1666666666666667 0.07142857142857142 0  0.2222222222222222 0.07142857142857142 0  0.2777777777777778 0.07142857142857142 0  0.3333333333333333 0.07142857142857142 0  0.3888888888888889 0.07142857142857142 0  0.4444444444444444 0.07142857142857142 0  0.5 0.07142857142857142 0  0.5555555555555556 0.07142857142857142 0  0.6111111111111112 0.07142857142857142 0  0.6666666666666666 0.07142857142857142 0  0.7222222222222222 0.07142857142857142 0  0.7777777777777778 0.07142857142857142 0  0.8333333333333334 0.07142857142857142 0  0.8888888888888888 0.07142857142857142 0  0.9444444444444444 0.07142857142857142 0  1 0.07142857142857142 0  0 0.08571428571428573 0  0.05555555555555555 0.08571428571428573 0  0.1111111111111111 0.08571428571428573 0  0.1666666666666667 0.08571428571428573 0  0.2222222222222222 0.08571428571428573 0  0.2777777777777778 0.08571428571428573 0  0.3333333333333333 0.08571428571428573 0  0.3888888888888889 0.08571428571428573 0  0.4444444444444444 0.08571428571428573 0  0.5 0.08571428571428573 0  0.5555555555555556 0.08571428571428573 0  0.6111111111111112 0.08571428571428573 0  0.6666666666666666 0.08571428571428573 0  0.7222222222222222 0.08571428571428573 0  0.7777777777777778 0.08571428571428573 0  0.8333333333333334 0.08571428571428573 0  0.8888888888888888 0.08571428571428573 0  0.9444444444444444 0.08571428571428573 0  1 0.08571428571428573 0  0 0.1 0  0.05555555555555555 0.1 0  0.1111111111111111 0.1 0  0.1666666666666667 0.1 0  0.2222222222222222 0.1 0  0.2777777777777778 0.1 0  0.3333333333333333 0.1 0  0.3888888888888889 0.1 0  0.4444444444444444 0.1 0  0.5 0.1 0  0.5555555555555556 0.1 0  0.6111111111111112 0.1 0  0.6666666666666666 0.1 0  0.7222222222222222 0.1 0  0.7777777777777778 0.1 0  0.8333333333333334 0.1 0  0.8888888888888888 0.1 0  0.9444444444444444 0.1 0  1 0.1 0  0 0 0.01  0.05555555555555555 0 0.01  0.1111111111111111 0 0.01  0.1666666666666667 0 0.01  0.2222222222222222 0 0.01  0.2777777777777778 0 0.01  0.3333333333333333 0 0.01  0.3888888888888889 0 0.01  0.4444444444444444 0 0.01  0.5 0 0.01  0.5555555555555556 0 0.01  0.6111111111111112 0 0.01  0.6666666666666666 0 0.01  0.7222222222222222 0 0.01  0.7777777777777778 0 0.01  0.8333333333333334 0 0.01  0.8888888888888888 0 0.01  0.9444444444444444 0 0.01  1 0 0.01  0 0.01428571428571429 0.01  0.05555555555555555 0.01428571428571429 0.01  0.1111111111111111 0.01428571428571429 0.01  0.1666666666666667 0.01428571428571429 0.01  0.2222222222222222 0.01428571428571429 0.01  0.2777777777777778 0.01428571428571429 0.01  0.3333333333333333 0.01428571428571429 0.01  0.3888888888888889 0.01428571428571429 0.01  0.4444444444444444 0.01428571428571429 0.01  0.5 0.01428571428571429 0.01  0.5555555555555556 0.01428571428571429 0.01  0.6111111111111112 0.01428571428571429 0.01  0.6666666666666666 0.01428571428571429 0.01  0.7222222222222222 0.01428571428571429 0.01  0.7777777777777778 0.01428571428571429 0.01  0.8333333333333334 0.01428571428571429 0.01  0.8888888888888888 0.01428571428571429 0.01  0.9444444444444444 0.01428571428571429 0.01  1 0.01428571428571429 0.01  0 0.02857142857142857 0.01  0.05555555555555555 0.02857142857142857 0.01  0.1111111111111111 0.02857142857142857 0.01  0.1666666666666667 0.02857142857142857 0.01  0.2222222222222222 0.02857142857142857 0.01  0.2777777777777778 0.02857142857142857 0.01  0.3333333333333333 0.02857142857142857 0.01  0.3888888888888889 0.02857142857142857 0.01  0.4444444444444444 0.02857142857142857 0.01  0.5 0.02857142857142857 0.01  0.5555555555555556 0.02857142857142857 0.01  0.6111111111111112 0.02857142857142857 0.01  0.6666666666666666 0.02857142857142857 0.01  0.7222222222222222 0.02857142857142857 0.01  0.7777777777777778 0.02857142857142857 0.01  0.8333333333333334 0.02857142857142857 0.01  0.8888888888888888 0.02857142857142857 0.01  0.9444444444444444 0.02857142857142857 0.01  1 0.02857142857142857 0.01  0 0.04285714285714286 0.01  0.05555555555555555 0.04285714285714286 0.01  0.1111111111111111 0.04285714285714286 0.01  0.1666666666666667 0.04285714285714286 0.01  0.2222222222222222 0.04285714285714286 0.01  0.2777777777777778 0.04285714285714286 0.01  0.3333333333333333 0.04285714285714286 0.01  0.3888888888888889 0.04285714285714286 0.01  0.4444444444444444 0.04285714285714286 0.01  0.5 0.04285714285714286 0.01  0.5555555555555556 0.04285714285714286 0.01  0.6111111111111112 0.04285714285714286 0.01  0.6666666666666666 0.04285714285714286 0.01  0.7222222222222222 0.04285714285714286 0.01  0.7777777777777778 0.04285714285714286 0.01  0.8333333333333334 0.04285714285714286 0.01  0.8888888888888888 0.04285714285714286 0.01  0.9444444444444444 0.04285714285714286 0.01  1 0.04285714285714286 0.01  0 0.05714285714285715 0.01  0.05555555555555555 0.05714285714285715 0.01  0.1111111111111111 0.05714285714285715 0.01  0.1666666666666667 0.05714285714285715 0.01  0.2222222222222222 0.05714285714285715 0.01  0.2777777777777778 0.05714285714285715 0.01  0.3333333333333333 0.05714285714285715 0.01  0.3888888888888889 0.05714285714285715 0.01  0.4444444444444444 0.05714285714285715 0.01  0.5 0.05714285714285715 0.01  0.5555555555555556 0.05714285714285715 0.01  0.6111111111111112 0.05714285714285715 0.01  0.6666666666666666 0.05714285714285715 0.01  0.7222222222222222 0.05714285714285715 0.01  0.7777777777777778 0.05714285714285715 0.01  0.8333333333333334 0.05714285714285715 0.01  0.8888888888888888 0.05714285714285715 0.01  0.9444444444444444 0.05714285714285715 0.01  1 0.05714285714285715 0.01  0 0.07142857142857142 0.01  0.05555555555555555 0.07142857142857142 0.01  0.1111111111111111 0.07142857142857142 0.01  0.1666666666666667 0.07142857142857142 0.01  0.2222222222222222 0.07142857142857142 0.01  0.2777777777777778 0.07142857142857142 0.01  0.3333333333333333 0.07142857142857142 0.01  0.3888888888888889 0.07142857142857142 0.01  0.4444444444444444 0.07142857142857142 0.01  0.5 0.07142857142857142 0.01  0.5555555555555556 0.07142857142857142 0.01  0.6111111111111112 0.07142857142857142 0.01  0.6666666666666666 0.07142857142857142 0.01  0.7222222222222222 0.07142857142857142 0.01  0.7777777777777778 0.07142857142857142 0.01  0.8333333333333334 0.07142857142857142 0.01  0.8888888888888888 0.07142857142857142 0.01  
[...]
<PointData  Vectors="f_36"> 
<DataArray  type="Float64"  Name="f_36"  NumberOfComponents="3" format="ascii">0.0000000000000000e+00 0.0000000000000000e+00 0.0000000000000000e+00  3.7318477949927543e-03 -7.4350683714095945e-03 1.7743870951603603e-02  3.0946680332792379e-03 -1.3127968795872146e-02 3.6647387750177528e-02  7.2102280581686309e-04 -1.5265816610355525e-02 4.4655736677385753e-02  -2.6330735167466541e-04 -1.4968487812160085e-02 4.2756836908611984e-02  -5.0348931223629944e-06 -1.4696944527622491e-02 4.2079404728371322e-02  1.0025157292289900e-04 -1.4686384598151320e-02 4.2616501458032030e-02  8.1331136011959316e-05 -1.4636094352911197e-02 4.2735179641351803e-02  9.5016936163387316e-05 -1.4570393124192992e-02 4.2960486674404698e-02  1.0241097015696007e-04 -1.4504518526787259e-02 4.3204625610672294e-02  1.0228677433895095e-04 -1.4433783597934209e-02 4.3460727360224487e-02  1.0005782052094956e-04 -1.4361346397212368e-02 4.3707145019920568e-02  1.5118219571575513e-04 -1.4315853707636944e-02 4.3967804826759493e-02  7.1762265806814637e-05 -1.4212007657764666e-02 4.4455971842856615e-02  -6.4971372321744604e-06 -1.3962962661407445e-02 4.4001816976410632e-02  4.8046989383758752e-04 -1.4187725396479152e-02 4.4097663613861082e-02  5.4817894921612743e-04 -1.5094322020994401e-02 4.8059432583450509e-02  -4.8267612026907950e-04 -1.5641532172865780e-02 5.0402982109397768e-02  -1.6312405260453127e-03 -1.6544280394923176e-02 4.9524208898757492e-02  0.0000000000000000e+00 0.0000000000000000e+00 0.0000000000000000e+00  3.6082014563067607e-03 -6.3492712484050483e-03 1.1127003335395867e-02  3.1834717748445967e-03 -1.1723909175936019e-02 2.4742245554005369e-02  8.9950879726195592e-04 -1.3982577308354286e-02 3.0781058382815453e-02  -2.8035381872482438e-04 -1.3828551126907309e-02 2.9183717711628906e-02  -3.5202074719511163e-05 -1.3566671391544606e-02 2.8670699733024180e-02  1.1277798179396318e-04 -1.3556826115570174e-02 2.9231254477798126e-02  8.2230172512753164e-05 -1.3518704673271154e-02 2.9423127914961312e-02  9.4825906688883398e-05 -1.3466213329044182e-02 2.9705396476822188e-02  1.0286080952587431e-04 -1.3414971245848506e-02 3.0016973693124612e-02  1.0460781208771777e-04 -1.3359520213932229e-02 3.0340950699278182e-02  1.0308431352837110e-04 -1.3301756171487185e-02 3.0665182110922392e-02  1.4018074611635157e-04 -1.3267266313674201e-02 3.0982813961975060e-02  8.9777665025599399e-05 -1.3191458363763916e-02 3.1534411491039603e-02  3.1029050209189316e-06 -1.2965374675110091e-02 3.1342728718738014e-02  3.9951981698787138e-04 -1.3123347717380869e-02 3.1301910864889239e-02  6.2556832621323694e-04 -1.3951740944232191e-02 3.4396759496985944e-02  -1.2301663645414174e-04 -1.4536529310788042e-02 3.6462775916387920e-02  -1.6553957851249326e-03 -1.5835082370262762e-02 3.6570878573319962e-02  0.0000000000000000e+00 0.0000000000000000e+00 0.0000000000000000e+00  2.2076778659185360e-03 -3.8992040275488355e-03 4.7367473871711540e-03  2.0553781632122441e-03 -7.5980015933435549e-03 1.1476293354529587e-02  6.6216671426322219e-04 -9.3107111912289001e-03 1.4673824438406669e-02  -1.4941132588352837e-04 -9.2307194243381602e-03 1.3878634864803875e-02  -1.5325648857352180e-06 -9.0327666549174027e-03 1.3701488669556004e-02  1.1534938497932901e-04 -9.0405508879421587e-03 1.4170012543788937e-02  9.6112114463077909e-05 -9.0295869857141570e-03 1.4434507036115232e-02  1.0600878419739282e-04 -9.0094716177445047e-03 1.4757348084524368e-02  1.1430997309484173e-04 -8.9925935506703358e-03 1.5112467719505333e-02  1.1812604640243432e-04 -8.9737567114147859e-03 1.5481688345111846e-02  1.1969802467171314e-04 -8.9524880858177190e-03 1.5862089387789623e-02  1.3851438739488717e-04 -8.9453393567207554e-03 1.6232122803139494e-02  1.1503338090985658e-04 -8.9251315101411058e-03 1.6750717306602984e-02  6.3375319283499700e-05 -8.7796055811255047e-03 1.6895131722330394e-02  2.8445519227004122e-04 -8.8484846656353335e-03 1.6981742137172452e-02  4.7627584941517098e-04 -9.4475694909710983e-03 1.8772203078473260e-02  1.7568258770520479e-04 -9.8765520290940486e-03 2.0120991068931268e-02  -1.7676078904660547e-03 -1.1624161527855259e-02 2.0870704648792204e-02  0.0000000000000000e+00 0.0000000000000000e+00 0.0000000000000000e+00  2.2858454922888301e-05 -1.9702104790763526e-06 3.4161147505447446e-05  4.3347589481990629e-05 -6.2844737934948102e-06 1.2768229736736785e-04  6.1547369627458793e-05 -1.2911433299961499e-05 2.7570700613332733e-04  7.7531175526376894e-05 -2.1572751691815268e-05 4.7177532483532619e-04  9.1446402728773078e-05 -3.2047952332874222e-05 7.0987353286799297e-04  1.0343177873106743e-04 -4.4125652125123502e-05 9.8437715433601970e-04  1.1362607842039226e-04 -5.7602108549895054e-05 1.2900411418769169e-03  1.2217034748870868e-04 -7.2282117638953453e-05 1.6220161920224658e-03  1.2920630599446461e-04 -8.7981203042659722e-05 1.9758487067476202e-03  1.3487677081097207e-04 -1.0452629402421812e-04 2.3474841276985218e-03  1.3932577653483184e-04 -1.2175680681205672e-04 2.7332707187285267e-03  1.4269856872801566e-04 -1.3952581782783479e-04 3.1299633608858168e-03  1.4514136457167165e-04 -1.5770132887837606e-04 3.5347273416293438e-03  1.4680256804723378e-04 -1.7616805735923112e-04 3.9451410641303739e-03  1.4783067326508878e-04 -1.9482818447983600e-04 4.3592073109293347e-03  1.4836990284930839e-04 -2.1360184998692655e-04 4.7753432775527729e-03  1.4857275675377729e-04 -2.3242994936116705e-04 5.1923612981751828e-03  1.4860919782225533e-04 -2.5127908065503867e-04 5.6095405341319423e-03  0.0000000000000000e+00 0.0000000000000000e+00 0.0000000000000000e+00  2.1600662242785244e-05 -3.1965024377484714e-06 3.3803187034431902e-05  4.2927551171451765e-05 -7.3821170505026359e-06 1.2716190533760481e-04  6.1904920100958486e-05 -1.3881175952626192e-05 2.7511649643155033e-04  7.8587338232536039e-05 -2.2418997103753444e-05 4.7112283743517761e-04  9.3131741502380344e-05 -3.2778726503421052e-05 7.0916692241550488e-04  1.0567980736767035e-04 -4.4748758333503915e-05 9.8362282874880414e-04  1.1637192360728079e-04 -5.8125760401269345e-05 1.2892449553064630e-03  1.2535163779809551e-04 -7.2714591244710507e-05 1.6211836372454710e-03  1.3276341369515446e-04 -8.8330830516007355e-05 1.9749848291976254e-03  1.3875303429365494e-04 -1.0480149068297472e-04 2.3465935375565983e-03  1.4346778895259858e-04 -1.2196607163491335e-04 2.7323575665823461e-03  1.4705650911488283e-04 -1.3967772123260147e-04 3.1290313326930610e-03  1.4966939000331109e-04 -1.5780453409013992e-04 3.5337796323718883e-03  1.5145887056889514e-04 -1.7623140366889250e-04 3.9441803638925205e-03  1.5257845592599097e-04 -1.9486017647505144e-04 4.3582358394939087e-03  1.5317790039988689e-04 -2.1361081264536629e-04 4.7743625734810273e-03  1.5341311231677511e-04 -2.3242555120778848e-04 5.1913719542053876e-03  1.5345915820543291e-04 -2.5126995914473519e-04 5.6085420357966887e-03  0.0000000000000000e+00 0.0000000000000000e+00 0.0000000000000000e+00  2.3930807013802149e-03 4.2026517068229500e-03 6.6319260073204600e-03  1.8766254938815050e-03 8.2146971786231544e-03 1.3667809940449973e-02  4.3862425568341230e-04 1.0293616428170694e-02 1.6236381421593157e-02  -1.2766976361494017e-04 1.0310428203409838e-02 1.5188637175400432e-02  4.3843907382722704e-05 1.0064982490439864e-02 1.5169026085352831e-02  1.1632241927947534e-04 1.0040773891632231e-02 1.5595777430457555e-02  1.0938307945753122e-04 9.9849583719868133e-03 1.5833877508739699e-02  1.2029763399480116e-04 9.9207456972508178e-03 1.6164419272776741e-02  1.2818471297185307e-04 9.8591313385144718e-03 1.6510050400046206e-02  1.3259273468553136e-04 9.7937629702459488e-03 1.6872489333844807e-02  1.3341619945564506e-04 9.7201610933877452e-03 1.7243136433544186e-02  1.5650481977401182e-04 9.6416856516604518e-03 1.7620660896310373e-02  1.1852986952823289e-04 9.5953866234670775e-03 1.8099893994321315e-02  5.6192748927390461e-05 9.4571522438890096e-03 1.8183659204630366e-02  3.0398126012897163e-04 9.3547292015532437e-03 1.8320767829279421e-02  4.2139545710919091e-04 9.7951964459718852e-03 2.0107739317992219e-02  6.4236431587406861e-06 1.0468694252189832e-02 2.1353095835301886e-02  -1.1463071087121288e-03 1.2016933013547667e-02 2.0935428670637832e-02  0.0000000000000000e+00 0.0000000000000000e+00 0.0000000000000000e+00  3.7815078735706155e-03 5.4619873172766951e-03 1.2985120345226548e-02  3.1126463506301202e-03 1.1185373915043107e-02 2.6693367844769680e-02  7.4492104923583465e-04 1.4377589960765722e-02 3.2148981761630079e-02  -3.0048778324607244e-04 1.4623340800715137e-02 3.0336294010156993e-02  -2.6930861931379134e-06 1.4294783551812967e-02 2.9962022545271919e-02  1.3560393795439667e-04 1.4244981016704378e-02 3.0500432823774608e-02  1.0980786684234676e-04 1.4165577225169699e-02 3.0665237503600822e-02  1.2159875305423996e-04 1.4065344394838773e-02 3.0946683518289823e-02  1.3002318685399118e-04 1.3967911326410455e-02 3.1246101549909377e-02  1.3458038505826558e-04 1.3865923084272747e-02 3.1557333149578176e-02  1.3342510206941475e-04 1.3751567001701230e-02 3.1872096280543508e-02  1.6450837182753293e-04 1.3624290243916247e-02 3.2174460212997247e-02  1.1704921469320074e-04 1.3554564066951838e-02 3.2678552346712790e-02  6.2452642668992211e-06 1.3389665131142255e-02 3.2549771450870464e-02  3.6371117493451665e-04 1.3223621419831208e-02 3.2386689309899679e-02  5.7344446549844295e-04 1.3756739044053633e-02 3.5200501828141183e-02  -1.1012986697093634e-04 1.4764790085818609e-02 3.7305222242465574e-02  -1.0675044306223743e-03 1.7183741730802032e-02 3.6550438866958315e-02  0.0000000000000000e+00 0.0000000000000000e+00 0.0000000000000000e+00  3.8568872369736770e-03 5.3501094755366851e-03 1.7786496760735467e-02  3.4636884368997294e-03 1.1575356029258188e-02 3.6586569540604380e-02  9.4601610775820388e-04 1.5201674725014963e-02 4.4897408082575564e-02  -3.9637451293749072e-04 1.5632833271997632e-02 4.3170969777579442e-02  -4.0226509420516686e-05 1.5317192022019165e-02 4.2496439383165135e-02  1.6172257691015029e-04 1.5257608575749752e-02 4.3051047011768422e-02  1.1938836326700491e-04 1.5173095306721136e-02 4.3167577261600802e-02  1.3225072886039022e-04 1.5062754290239094e-02 4.3382901631859323e-02  1.4170847165063331e-04 1.4953673386276015e-02 4.3622806956766576e-02  1.4745409406592320e-04 1.4840171729861708e-02 4.3868169125103287e-02  1.4763719937204751e-04 1.4714103046017382e-02 4.4115988132735345e-02  1.7324750934167804e-04 1.4570953432154391e-02 4.4332944187806700e-02  1.4546299504806417e-04 1.4492422117961621e-02 4.4798054356310610e-02  7.5278168995223412e-06 1.4325449127887172e-02 4.4584106278679425e-02  2.9471060442171114e-04 1.4133671239412700e-02 4.4260551542264624e-02  5.8637292208025974e-04 1.4679854085660221e-02 4.7611247479712168e-02  -2.8763356216579956e-04 1.5738727411878806e-02 5.0503934860220132e-02  -1.2224824335433579e-03 1.8468909440158544e-02 5.0649845446421204e-02  0.0000000000000000e+00 0.0000000000000000e+00 0.0000000000000000e+00  1.5006516658880016e-03 -2.9455653042731495e-03 1.7151272910209313e-02  1.4366274441929548e-03 -5.5918316613362412e-03 3.6153696190145412e-02  3.9679888938400770e-04 -6.6235608895175600e-03 4.4290634469054152e-02  -1.3718452079798893e-04 -6.4733903771614322e-03 4.2386753500390444e-02  -3.3044960760376005e-05 -6.3204151805706932e-03 4.1658948828167112e-02  4.5065037387495169e-05 -6.3304263688412910e-03 4.2202612813762204e-02  3.7302335294570940e-05 -6.3256056849383254e-03 4.2326951198724629e-02  4.0902994283725349e-05 -6.3028603045890367e-03 4.2550687365804023e-02  4.5364050518474794e-05 -6.2829027778821605e-03 4.2796140090978110e-02  4.5044005645801559e-05 -6.2611743365810360e-03 4.3053115655565161e-02  4.0751757873068003e-05 -6.2395734299973875e-03 4.3299161462628397e-02  6.8464859757774970e-05 -6.2334975991126546e-03 4.3557704132183288e-02  5.5124522400092053e-05 -6.1988541528127427e-03 4.4057581159274072e-02  5.8175796413600544e-06 -6.0836521054489136e-03 4.3605492667148374e-02  1.6772579212088378e-04 -6.1688429820151800e-03 4.3645698011374898e-02  1.5397986238989986e-04 -6.5961403779968971e-03 4.7591387857877060e-02  -5.2878161652000885e-04 -7.0167293837226441e-03 4.9965290983224629e-02  -1.4340893732189117e-03 -7.9889952592097687e-03 4.9092100612285583e-02  0.0000000000000000e+00 0.0000000000000000e+00 0.0000000000000000e+00  1.6307974273634456e-03 -2.5837803172351643e-03 1.0692995946128353e-02  1.5747689243499397e-03 -4.8922077521729680e-03 2.4346354638319998e-02  4.8882293916861438e-04 -5.8852676961484761e-03 3.0458346835541245e-02  -1.4829823439694415e-04 -5.8209962145593002e-03 2.8824176353524831e-02  -4.8884925362269221e-05 -5.6933229139170555e-03 2.8252460909523724e-02  5.1934259631400574e-05 -5.6953398707496709e-03 2.8824572134987320e-02  3.9650216218736568e-05 -5.6919998961627062e-03 2.9025969300423685e-02  4.1278715514665475e-05 -5.6738701924793659e-03 2.9308780739686176e-02  4.6236647965412475e-05 -5.6578173346535443e-03 2.9624634343980535e-02  4.6920900520997728e-05 -5.6403272798734357e-03 2.9952642273146611e-02  4.4254021878650150e-05 -5.6228955381664603e-03 3.0280419670545924e-02  6.4663059884505260e-05 -5.6191603842476118e-03 3.0598463864857445e-02  5.4570923173846688e-05 -5.5917715166775503e-03 3.1162258028198095e-02  1.0274911148544468e-05 -5.4944018900568888e-03 3.0981044635535152e-02  1.5909690621862868e-04 -5.5627600654835725e-03 3.0899304347402262e-02  2.3058259545300487e-04 -5.9168333746995802e-03 3.3982649756841753e-02  -2.4514664714787339e-04 -6.2553295108804885e-03 3.6091199347133472e-02  -1.3442098875457663e-03 -7.2898957826310791e-03 3.6306452313395368e-02  0.0000000000000000e+00 0.0000000000000000e+00 0.0000000000000000e+00  1.0795160770912758e-03 -1.5707935305223192e-03 4.2193471060409885e-03  1.0660291975478880e-03 -2.9996041023386670e-03 1.0732458496390400e-02  3.6761773823796050e-04 -3.6692839086148255e-03 1.3835951914774203e-02  -8.1722125726265771e-05 -3.6642672033839092e-03 1.2979370429840723e-02  -2.4177169808275435e-05 -3.5939848043070044e-03 1.2760662745072645e-02  5.4227904340324422e-05 -3.5978017628472744e-03 1.3242210099872588e-02  4.7122814149923192e-05 -3.6013330847144234e-03 1.3518612959240409e-02  4.8164242721627385e-05 -3.5979298657651260e-03 1.3846001369721752e-02  5.2954315893362427e-05 -3.5960314165547325e-03 1.4208945255445709e-02  5.4828998125280809e-05 -3.5937170134923186e-03 1.4586168528601808e-02  5.4876706932578131e-05 -3.5914125342665563e-03 1.4974383923486437e-02  6.5147448525443245e-05 -3.5972569869736795e-03 1.5349861380735332e-02  5.8911458116627484e-05 -3.5916849576384316e-03 1.5882133070265269e-02  3.5564587869010673e-05 -3.5403327894309201e-03 1.6042565961011095e-02  1.2636701277190016e-04 -3.5836008174773134e-03 1.6100812683753692e-02  2.0166797873168824e-04 -3.8122943734242706e-03 1.7860090091779229e-02  1.3916856031622579e-05 -3.9949277280286319e-03 1.9214290452010438e-02  -1.2174665221603195e-03 -4.8938226945060229e-03 1.9989230833767642e-02  0.0000000000000000e+00 0.0000000000000000e+00 0.0000000000000000e+00  1.0760782803476056e-05 -1.8299022390078522e-06 3.3211820798950533e-05  2.1036865435459990e-05 -6.0965689267808173e-06 1.2682062936841744e-04  3.0085813679853477e-05 -1.2649645518613860e-05 2.7494081566488448e-04  3.8031467756326825e-05 -2.1247972029439105e-05 4.7110283122141265e-04  4.4951270871148554e-05 -3.1666618210770185e-05 7.0928874783679767e-04  5.0914739408680789e-05 -4.3693511029229916e-05 9.8387417736847432e-04  5.5990536690632681e-05 -5.7124632274306097e-05 1.2896139976194304e-03  6.0248526519980247e-05 -7.1764524735274369e-05 1.6216588316037065e-03  6.3758861538340636e-05 -8.7428410213646638e-05 1.9755550467189702e-03  6.6592147181869667e-05 -1.0394292460036588e-04 2.3472480323311466e-03  6.8819529223476260e-05 -1.2114717688458384e-04 2.7330859971275928e-03  7.0512691359469855e-05 -1.3889392497881689e-04 3.1298237682087600e-03  7.1743680194645136e-05 -1.5705083417415742e-04 3.5346265822862686e-03  7.2585465784683227e-05 -1.7550234976229127e-04 3.9450727595990191e-03  7.3111325232751089e-05 -1.9415019282403371e-04 4.3591650792108947e-03  7.3392448991986024e-05 -2.1291386293192233e-04 4.7753207886923081e-03  7.3502861807535981e-05 -2.3173423055982423e-04 5.1923517229862815e-03  7.3523828033912413e-05 -2.5057663095173364e-04 5.6095334806136052e-03  0.0000000000000000e+00 0.0000000000000000e+00 0.0000000000000000e+00  1.0932392726621827e-05 -2.7261900652769083e-06 3.2663397981931179e-05  2.1969955399082245e-05 -6.8236707090335348e-06 1.2621205140665763e-04  3.1629660738559283e-05 -1.3286133976018491e-05 2.7427457195587266e-04  4.0123316571823384e-05 -2.1803621460796891e-05 4.7038301411042978e-04  4.7531700241672375e-05 -3.2147435978967855e-05 7.0852178851738608e-04  5.3927002406775829e-05 -4.4104662135079069e-05 9.8306603636896589e-04  5.9379875495706953e-05 -5.7471355038788278e-05 1.2887702400877475e-03  6.3962639077707077e-05 -7.2052118344732296e-05 1.6207846228292874e-03  6.7748260800809377e-05 -8.7662204928699839e-05 1.9746551078254301e-03  7.0810391893303475e-05 -1.0412830107909136e-04 2.3463266444594274e-03  7.3223509842709338e-05 -1.2128956896290854e-04 2.7321469742239333e-03  7.5062951222203199e-05 -1.3899881582407419e-04 3.1288704491273744e-03  7.6404813667007193e-05 -1.5712375535980704e-04 3.5336618119479108e-03  7.7326336862090425e-05 -1.7554892123323071e-04 3.9440988758718872e-03  7.7905435586004718e-05 -1.9417594295733777e-04 4.3581838686679092e-03  7.8218511104468727e-05 -2.1292423090841736e-04 4.7743334153084313e-03  7.8344790845960964e-05 -2.3173510169857453e-04 5.1913587584331688e-03  7.8371466489621033e-05 -2.5057321741256162e-04 5.6085361570117898e-03  0.0000000000000000e+00 0.0000000000000000e+00 0.0000000000000000e+00  1.2108047426495922e-03 1.5029889614390373e-03 5.9061763282864926e-03  1.0497432772933926e-03 2.9011895693315686e-03 1.2256534868769934e-02  2.9626999460869065e-04 3.6549030293637676e-03 1.4352811904019172e-02  -7.6858381672401287e-05 3.6694366475546096e-03 1.3144541972565328e-02  3.8745004535622712e-06 3.5765937326140492e-03 1.3127508534226087e-02  6.3589587819157381e-05 3.5552652483528411e-03 1.3577560964029555e-02  5.9098674228939398e-05 3.5182858872637043e-03 1.3825725747020382e-02  6.2622892127793878e-05 3.4797674492142334e-03 1.4165804267328511e-02  6.7440286920096343e-05 3.4409649936076748e-03 1.4522569459541638e-02  6.9739428432010793e-05 3.3999660648545930e-03 1.4896171935521632e-02  6.8955703328503584e-05 3.3547819228140464e-03 1.5279200976588492e-02  8.1823485242040037e-05 3.3039412803268680e-03 1.5668917744629075e-02  7.4477032482263853e-05 3.2713587709300444e-03 1.6161155276836960e-02  3.2810908135299734e-05 3.2122568437748583e-03 1.6265425874904742e-02  1.2208562848227346e-04 3.1493104445788991e-03 1.6403049789232221e-02  1.8637599486842342e-04 3.2679632830673886e-03 1.8135140167103641e-02  -3.0206558194066437e-06 3.5323193587803868e-03 1.9258924097260949e-02  -8.5755813287426770e-04 4.1920662735502080e-03 1.8270143318793942e-02  0.0000000000000000e+00 0.0000000000000000e+00 0.0000000000000000e+00  1.7440050639470162e-03 2.4039069220781108e-03 1.2534974000253682e-02  1.6081508142214158e-03 5.0014317702575728e-03 2.6094116332947521e-02  4.3993734517166122e-04 6.4877618953881628e-03 3.1374484283792678e-02  -1.6852387171301621e-04 6.6239008428484215e-03 2.9408632022786308e-02  -2.9993173798710018e-05 6.4764160520738388e-03 2.8975917308856493e-02  7.7864158469174345e-05 6.4413831937111983e-03 2.9535490609503036e-02  6.6759429161449449e-05 6.3866911448819267e-03 2.9712111424586546e-02  6.7574720660709616e-05 6.3257755900109364e-03 2.9998603589774998e-02  7.3385544637644801e-05 6.2649651981949613e-03 3.0306842900449455e-02  7.6198650496652601e-05 6.2012705627096463e-03 3.0626606272099746e-02  7.4482892486062399e-05 6.1307355401771764e-03 3.0950780172835445e-02  9.1250738672375405e-05 6.0487271924450628e-03 3.1261382427822157e-02  8.3344278811327751e-05 6.0014171037727866e-03 3.1777568521558060e-02  1.7820235326809521e-05 5.9167067849312527e-03 3.1661066059573292e-02  1.36