<?xml version="1.0"?>
<VTKFile type="UnstructuredGrid"  version="0.1"  >
<UnstructuredGrid>
<Piece  NumberOfPoints="760" NumberOfCells="3024">
<Points>
<DataArray  type="Float64"  NumberOfComponents="3"  format="ascii">0 0 0  0.05555555555555555 0 0  0.1111111111111111 0 0  0.1666666666666667 0 0  0.2222222222222222 0 0  0.2777777777777778 0 0  0.3333333333333333 0 0  0.3888888888888889 0 0  0.4444444444444444 0 0  0.5 0 0  0.5555555555555556 0 0  0.6111111111111112 0 0  0.6666666666666666 0 0  0.7222222222222222 0 0  0.7777777777777778 0 0  0.8333333333333334 0 0  0.8888888888888888 0 0  0.9444444444444444 0 0  1 0 0  0 0.01428571428571429 0  0.05555555555555555 0.01428571428571429 0  0.1111111111111111 0.01428571428571429 0  0.1666666666666667 0.01428571428571429 0  0.2222222222222222 0.01428571428571429 0  0.2777777777777778 0.01428571428571429 0  0.3333333333333333 0.01428571428571429 0  0.3888888888888889 0.01428571428571429 0  0.4444444444444444 0.01428571428571429 0  0.5 0.01428571428571429 0  0.5555555555555556 0.01428571428571429 0  0.6111111111111112 0.01428571428571429 0  0.6666666666666666 0.01428571428571429 0  0.7222222222222222 0.01428571428571429 0  0.7777777777777778 0.01428571428571429 0  0.8333333333333334 0.01428571428571429 0  0.8888888888888888 0.01428571428571429 0  0.9444444444444444 0.01428571428571429 0  1 0.01428571428571429 0  0 0.02857142857142857 0  0.05555555555555555 0.02857142857142857 0  0.1111111111111111 0.02857142857142857 0  0.1666666666666667 0.02857142857142857 0  0.2222222222222222 0.02857142857142857 0  0.2777777777777778 0.02857142857142857 0  0.3333333333333333 0.02857142857142857 0  0.3888888888888889 0.02857142857142857 0  0.4444444444444444 0.02857142857142857 0  0.5 0.02857142857142857 0  0.5555555555555556 0.02857142857142857 0  0.6111111111111112 0.02857142857142857 0  0.6666666666666666 0.02857142857142857 0  0.7222222222222222 0.02857142857142857 0  0.7777777777777778 0.02857142857142857 0  0.8333333333333334 0.02857142857142857 0  0.8888888888888888 0.02857142857142857 0  0.9444444444444444 0.02857142857142857 0  1 0.02857142857142857 0  0 0.04285714285714286 0  0.05555555555555555 0.04285714285714286 0  0.1111111111111111 0.04285714285714286 0  0.1666666666666667 0.04285714285714286 0  0.2222222222222222 0.04285714285714286 0  0.2777777777777778 0.04285714285714286 0  0.3333333333333333 0.04285714285714286 0  0.3888888888888889 0.04285714285714286 0  0.4444444444444444 0.04285714285714286 0  0.5 0.04285714285714286 0  0.5555555555555556 0.04285714285714286 0  0.6111111111111112 0.04285714285714286 0  0.6666666666666666 0.04285714285714286 0  0.7222222222222222 0.04285714285714286 0  0.7777777777777778 0.04285714285714286 0  0.8333333333333334 0.04285714285714286 0  0.8888888888888888 0.04285714285714286 0  0.9444444444444444 0.04285714285714286 0  1 0.04285714285714286 0  0 0.05714285714285715 0  0.05555555555555555 0.05714285714285715 0  0.1111111111111111 0.05714285714285715 0  0.1666666666666667 0.05714285714285715 0  0.2222222222222222 0.05714285714285715 0  0.2777777777777778 0.05714285714285715 0  0.3333333333333333 0.05714285714285715 0  0.3888888888888889 0.05714285714285715 0  0.4444444444444444 0.05714285714285715 0  0.5 0.05714285714285715 0  0.5555555555555556 0.05714285714285715 0  0.6111111111111112 0.05714285714285715 0  0.6666666666666666 0.05714285714285715 0  0.7222222222222222 0.05714285714285715 0  0.7777777777777778 0.05714285714285715 0  0.8333333333333334 0.05714285714285715 0  0.8888888888888888 0.05714285714285715 0  0.9444444444444444 0.05714285714285715 0  1 0.05714285714285715 0  0 0.07142857142857142 0  0.05555555555555555 0.07142857142857142 0  0.1111111111111111 0.07142857142857142 0  0.1666666666666667 0.07142857142857142 0  0.2222222222222222 0.07142857142857142 0  0.2777777777777778 0.07142857142857142 0  0.3333333333333333 0.07142857142857142 0  0.3888888888888889 0.07142857142857142 0  0.4444444444444444 0.07142857142857142 0  0.5 0.07142857142857142 0  0.5555555555555556 0.07142857142857142 0  0.6111111111111112 0.07142857142857142 0  0.6666666666666666 0.07142857142857142 0  0.7222222222222222 0.07142857142857142 0  0.7777777777777778 0.07142857142857142 0  0.8333333333333334 0.07142857142857142 0  0.8888888888888888 0.07142857142857142 0  0.9444444444444444 0.07142857142857142 0  1 0.07142857142857142 0  0 0.08571428571428573 0  0.05555555555555555 0.08571428571428573 0  0.1111111111111111 0.08571428571428573 0  0.1666666666666667 0.08571428571428573 0  0.2222222222222222 0.08571428571428573 0  0.2777777777777778 0.08571428571428573 0  0.3333333333333333 0.08571428571428573 0  0.3888888888888889 0.08571428571428573 0  0.4444444444444444 0.08571428571428573 0  0.5 0.08571428571428573 0  0.5555555555555556 0.08571428571428573 0  0.6111111111111112 0.08571428571428573 0  0.6666666666666666 0.08571428571428573 0  0.7222222222222222 0.08571428571428573 0  0.7777777777777778 0.08571428571428573 0  0.8333333333333334 0.08571428571428573 0  0.8888888888888888 0.08571428571428573 0  0.9444444444444444 0.08571428571428573 0  1 0.08571428571428573 0  0 0.1 0  0.05555555555555555 0.1 0  0.1111111111111111 0.1 0  0.1666666666666667 0.1 0  0.2222222222222222 0.1 0  0.2777777777777778 0.1 0  0.3333333333333333 0.1 0  0.3888888888888889 0.1 0  0.4444444444444444 0.1 0  0.5 0.1 0  0.5555555555555556 0.1 0  0.6111111111111112 0.1 0  0.6666666666666666 0.1 0  0.7222222222222222 0.1 0  0.7777777777777778 0.1 0  0.8333333333333334 0.1 0  0.8888888888888888 0.1 0  0.9444444444444444 0.1 0  1 0.1 0  0 0 0.01  0.05555555555555555 0 0.01  0.1111111111111111 0 0.01  0.1666666666666667 0 0.01  0.2222222222222222 0 0.01  0.2777777777777778 0 0.01  0.3333333333333333 0 0.01  0.3888888888888889 0 0.01  0.4444444444444444 0 0.01  0.5 0 0.01  0.5555555555555556 0 0.01  0.6111111111111112 0 0.01  0.6666666666666666 0 0.01  0.7222222222222222 0 0.01  0.7777777777777778 0 0.01  0.8333333333333334 0 0.01  0.8888888888888888 0 0.01  0.9444444444444444 0 0.01  1 0 0.01  0 0.01428571428571429 0.01  0.05555555555555555 0.01428571428571429 0.01  0.1111111111111111 0.01428571428571429 0.01  0.1666666666666667 0.01428571428571429 0.01  0.2222222222222222 0.01428571428571429 0.01  0.2777777777777778 0.01428571428571429 0.01  0.3333333333333333 0.01428571428571429 0.01  0.3888888888888889 0.01428571428571429 0.01  0.4444444444444444 0.01428571428571429 0.01  0.5 0.01428571428571429 0.01  0.5555555555555556 0.01428571428571429 0.01  0.6111111111111112 0.01428571428571429 0.01  0.6666666666666666 0.01428571428571429 0.01  0.7222222222222222 0.01428571428571429 0.01  0.7777777777777778 0.01428571428571429 0.01  0.8333333333333334 0.01428571428571429 0.01  0.8888888888888888 0.01428571428571429 0.01  0.9444444444444444 0.01428571428571429 0.01  1 0.01428571428571429 0.01  0 0.02857142857142857 0.01  0.05555555555555555 0.02857142857142857 0.01  0.1111111111111111 0.02857142857142857 0.01  0.1666666666666667 0.02857142857142857 0.01  0.2222222222222222 0.02857142857142857 0.01  0.2777777777777778 0.02857142857142857 0.01  0.3333333333333333 0.02857142857142857 0.01  0.3888888888888889 0.02857142857142857 0.01  0.4444444444444444 0.02857142857142857 0.01  0.5 0.02857142857142857 0.01  0.5555555555555556 0.02857142857142857 0.01  0.6111111111111112 0.02857142857142857 0.01  0.6666666666666666 0.02857142857142857 0.01  0.7222222222222222 0.02857142857142857 0.01  0.7777777777777778 0.02857142857142857 0.01  0.8333333333333334 0.02857142857142857 0.01  0.8888888888888888 0.02857142857142857 0.01  0.9444444444444444 0.02857142857142857 0.01  1 0.02857142857142857 0.01  0 0.04285714285714286 0.01  0.05555555555555555 0.04285714285714286 0.01  0.1111111111111111 0.04285714285714286 0.01  0.1666666666666667 0.04285714285714286 0.01  0.2222222222222222 0.04285714285714286 0.01  0.2777777777777778 0.04285714285714286 0.01  0.3333333333333333 0.04285714285714286 0.01  0.3888888888888889 0.04285714285714286 0.01  0.4444444444444444 0.04285714285714286 0.01  0.5 0.04285714285714286 0.01  0.5555555555555556 0.04285714285714286 0.01  0.6111111111111112 0.04285714285714286 0.01  0.6666666666666666 0.04285714285714286 0.01  0.7222222222222222 0.04285714285714286 0.01  0.7777777777777778 0.04285714285714286 0.01  0.8333333333333334 0.04285714285714286 0.01  0.8888888888888888 0.04285714285714286 0.01  0.9444444444444444 0.04285714285714286 0.01  1 0.04285714285714286 0.01  0 0.05714285714285715 0.01  0.05555555555555555 0.05714285714285715 0.01  0.1111111111111111 0.05714285714285715 0.01  0.1666666666666667 0.05714285714285715 0.01  0.2222222222222222 0.05714285714285715 0.01  0.2777777777777778 0.05714285714285715 0.01  0.3333333333333333 0.05714285714285715 0.01  0.3888888888888889 0.05714285714285715 0.01  0.4444444444444444 0.05714285714285715 0.01  0.5 0.05714285714285715 0.01  0.5555555555555556 0.05714285714285715 0.01  0.6111111111111112 0.05714285714285715 0.01  0.6666666666666666 0.05714285714285715 0.01  0.7222222222222222 0.05714285714285715 0.01  0.7777777777777778 0.05714285714285715 0.01  0.8333333333333334 0.05714285714285715 0.01  0.8888888888888888 0.05714285714285715 0.01  0.9444444444444444 0.05714285714285715 0.01  1 0.05714285714285715 0.01  0 0.07142857142857142 0.01  0.05555555555555555 0.07142857142857142 0.01  0.1111111111111111 0.07142857142857142 0.01  0.1666666666666667 0.07142857142857142 0.01  0.2222222222222222 0.07142857142857142 0.01  0.2777777777777778 0.07142857142857142 0.01  0.3333333333333333 0.07142857142857142 0.01  0.3888888888888889 0.07142857142857142 0.01  0.4444444444444444 0.07142857142857142 0.01  0.5 0.07142857142857142 0.01  0.5555555555555556 0.07142857142857142 0.01  0.6111111111111112 0.07142857142857142 0.01  0.6666666666666666 0.07142857142857142 0.01  0.7222222222222222 0.07142857142857142 0.01  0.7777777777777778 0.07142857142857142 0.01  0.8333333333333334 0.07142857142857142 0.01  0.8888888888888888 0.07142857142857142 0.01  
[...]
<PointData  Vectors="f_36"> 
<DataArray  type="Float64"  Name="f_36"  NumberOfComponents="3" format="ascii">0.0000000000000000e+00 0.0000000000000000e+00 0.0000000000000000e+00  -1.6774526463170880e-03 3.0516133894774563e-03 -6.3802410730895015e-03  -2.5578566013842205e-03 6.6602836837537944e-03 -1.6113862723775536e-02  -2.7161585060008655e-03 1.0533520100234377e-02 -2.8122414181067298e-02  -1.7438203866072444e-03 1.3364307944768190e-02 -3.8324199235967776e-02  -1.3908321547509512e-04 1.4046148133269447e-02 -4.1618383300902104e-02  5.0834063497642813e-04 1.3262918805814601e-02 -3.8490517266432170e-02  4.9052697203973590e-06 1.2862133440727893e-02 -3.6841767616447224e-02  -2.5522348462674326e-04 1.3120959284117313e-02 -3.8568192446639636e-02  -1.9670343338232908e-04 1.3285331368080440e-02 -3.9374127997922788e-02  -2.3787394144561517e-04 1.3408015793480920e-02 -4.0087504152827864e-02  -6.0057925030889958e-05 1.3416403819352709e-02 -4.0924321371333811e-02  -5.5363245252674389e-05 1.3265405028430401e-02 -4.0318807069855474e-02  -4.0683438110613419e-04 1.3586290212168993e-02 -4.1230069422262441e-02  -4.8515674874456775e-04 1.4287031543272311e-02 -4.4050130971581676e-02  -2.4086754816462361e-04 1.4761357693932140e-02 -4.6076748817109159e-02  1.0851781330029131e-04 1.4916817670284672e-02 -4.7133942204832760e-02  7.6015089498389886e-04 1.4948101636101196e-02 -4.7571773498577476e-02  1.6295504260340123e-03 1.5746612644564971e-02 -4.6904209250551013e-02  0.0000000000000000e+00 0.0000000000000000e+00 0.0000000000000000e+00  -1.5735845995935940e-03 2.5414045194640310e-03 -3.7058239218240542e-03  -2.4015561630119963e-03 5.7819633851162022e-03 -1.0187450128115866e-02  -2.6111036521454479e-03 9.3837958036368935e-03 -1.8630088881633707e-02  -1.7845018164020924e-03 1.2148181012010663e-02 -2.6170251434250443e-02  -2.6569066609525205e-04 1.2956443855774467e-02 -2.8831535874193497e-02  5.0308942613097921e-04 1.2288551712297913e-02 -2.6496578656930437e-02  6.6115358463829515e-05 1.1868385269249432e-02 -2.5203529268833662e-02  -2.7705926557877909e-04 1.2092096469742799e-02 -2.6668686317583148e-02  -2.0286379897702951e-04 1.2261350244633592e-02 -2.7381903123862333e-02  -2.2926805368383434e-04 1.2382694699540899e-02 -2.7983932472566402e-02  -9.8994795184672958e-05 1.2411700147436521e-02 -2.8812252039368894e-02  -4.0092906612324902e-05 1.2265421768517065e-02 -2.8406078768183331e-02  -3.6827052072802474e-04 1.2521020540508354e-02 -2.9041521541871975e-02  -5.0198562609850251e-04 1.3166359603868074e-02 -3.1233297426482277e-02  -2.7913305099278089e-04 1.3638411648265092e-02 -3.2857245682082925e-02  1.0965120780205240e-05 1.3814404284842147e-02 -3.3790108394000158e-02  4.4422908632385787e-04 1.3885910440350180e-02 -3.4386639683438039e-02  1.6497157681354374e-03 1.5053226950485925e-02 -3.4647523891952990e-02  0.0000000000000000e+00 0.0000000000000000e+00 0.0000000000000000e+00  -9.5379129532148044e-04 1.4777258296228058e-03 -1.4641113229027756e-03  -1.4814568522714617e-03 3.5571915855809304e-03 -4.4526417715231113e-03  -1.6395873282047349e-03 6.0119202682396436e-03 -8.5594311900268043e-03  -1.1712764492511651e-03 8.0128669186682322e-03 -1.2431840517455045e-02  -2.4780508816605283e-04 8.6859113311030037e-03 -1.3990185024316256e-02  2.7464039355279277e-04 8.2313469776771619e-03 -1.2925057338045326e-02  2.2301876580184926e-05 7.8965494205974728e-03 -1.2344777347661862e-02  -2.2783531495876950e-04 8.0634993180524941e-03 -1.3295788017827267e-02  -1.8090495528406324e-04 8.2029845951299939e-03 -1.3851095877309911e-02  -1.9110375336826003e-04 8.3009008163350915e-03 -1.4323964510538356e-02  -1.2757773690514482e-04 8.3519133784719073e-03 -1.4991887815700421e-02  -7.4965772059622964e-05 8.2446155890011554e-03 -1.4968846011291349e-02  -2.7366410016258690e-04 8.3907009257290829e-03 -1.5421369773197947e-02  -3.7914392550869624e-04 8.8456019820048835e-03 -1.6730643184138385e-02  -2.4813776471838963e-04 9.2054115370116731e-03 -1.7767141332607789e-02  -8.4753056410655355e-05 9.3682392216156082e-03 -1.8463868705422912e-02  4.6205624248705823e-05 9.4168963452156921e-03 -1.9038151907272583e-02  1.7265847629780100e-03 1.1022608948119792e-02 -1.9868142310939682e-02  0.0000000000000000e+00 0.0000000000000000e+00 0.0000000000000000e+00  -2.1578261589539349e-05 1.8006552737908938e-06 -3.2055064579638868e-05  -4.1061755832944469e-05 5.7169397150786940e-06 -1.2035488542811221e-04  -5.8467602772739180e-05 1.1733485155307498e-05 -2.6066958831368877e-04  -7.3795133544584388e-05 1.9597492428377418e-05 -4.4702024220889141e-04  -8.7156712461815934e-05 2.9103384126620248e-05 -6.7366997220687057e-04  -9.8695767737776296e-05 4.0052179573228197e-05 -9.3527528159686459e-04  -1.0854933206226764e-04 5.2256446727293581e-05 -1.2269186299346058e-03  -1.1683823843088273e-04 6.5539820160368260e-05 -1.5440324135480856e-03  -1.2368479570240996e-04 7.9735104862419049e-05 -1.8823685043864178e-03  -1.2921859171979649e-04 9.4685245396161744e-05 -2.2380408206426040e-03  -1.3357170965415312e-04 1.1024536538192084e-04 -2.6075323986196582e-03  -1.3688035105165311e-04 1.2628370970551789e-04 -2.9877001657238811e-03  -1.3928072878393926e-04 1.4268270686101689e-04 -3.3757945136689955e-03  -1.4090700047747135e-04 1.5933907747622803e-04 -3.7694401197115681e-03  -1.4190061348125194e-04 1.7616466637190636e-04 -4.1666379646466915e-03  -1.4241385890490023e-04 1.9308932026452109e-04 -4.5658069791951464e-03  -1.4260588441462440e-04 2.1006271509725567e-04 -4.9658091812964404e-03  -1.4264055813866498e-04 2.2705644918181599e-04 -5.3659673400499605e-03  0.0000000000000000e+00 0.0000000000000000e+00 0.0000000000000000e+00  -2.0353050404474780e-05 2.9652455810530658e-06 -3.1720033665680101e-05  -4.0592491220859406e-05 6.7675929660945572e-06 -1.1987133529263212e-04  -5.8708920358826654e-05 1.2664832706217815e-05 -2.6012485586436314e-04  -7.4679663196178145e-05 2.0409904373033202e-05 -4.4641996289325860e-04  -8.8618255065731907e-05 2.9805583469799609e-05 -6.7301931605594743e-04  -1.0067020241597767e-04 4.0653451710935704e-05 -9.3458012424482392e-04  -1.1097801541571258e-04 5.2764101552966304e-05 -1.2261852913533079e-03  -1.1966596855898828e-04 6.5960433129856781e-05 -1.5432662419975383e-03  -1.2685748723292322e-04 8.0076147123162012e-05 -1.8815740049025766e-03  -1.3268482689885317e-04 9.4954462580543693e-05 -2.2372223060170473e-03  -1.3728311056168937e-04 1.1045066755544240e-04 -2.6066937649375467e-03  -1.4079148323272418e-04 1.2643327299730785e-04 -2.9868448480447683e-03  -1.4335049387374273e-04 1.4278427730303605e-04 -3.3749255878116964e-03  -1.4509796818552108e-04 1.5940052473066967e-04 -3.7685601149778300e-03  -1.4617820610585380e-04 1.7619478601244300e-04 -4.1657488684132184e-03  -1.4674745220333551e-04 1.9309748759024006e-04 -4.5649102180798104e-03  -1.4696951113133080e-04 2.1005846142912017e-04 -4.9649051667652044e-03  -1.4701332002243044e-04 2.2704774711050101e-04 -5.3650550044086432e-03  0.0000000000000000e+00 0.0000000000000000e+00 0.0000000000000000e+00  -1.0899465643430261e-03 -1.6863372584194460e-03 -2.3660678223724266e-03  -1.5447743060959605e-03 -3.9111553299361630e-03 -5.9853840422988969e-03  -1.5967257374480393e-03 -6.5305224482023029e-03 -1.0432865632190494e-02  -1.0242441666642554e-03 -8.7217151621016321e-03 -1.4154201129646538e-02  -1.1512855090286694e-04 -9.5716609173380710e-03 -1.5228264008009727e-02  2.3703484474971864e-04 -9.1389079062291784e-03 -1.3930650631946701e-02  -7.6324516430858238e-05 -8.6948344145188570e-03 -1.3570565475462018e-02  -2.4670782902736166e-04 -8.8026092745459375e-03 -1.4618240585260572e-02  -2.1021217599279874e-04 -8.9252073019047175e-03 -1.5099468565864619e-02  -2.3761005231953699e-04 -8.9883348590745222e-03 -1.5579473814201853e-02  -1.4357896544952366e-04 -9.0483812119798654e-03 -1.6238601864224992e-02  -1.0897484848655207e-04 -8.9161062408321286e-03 -1.6229621055350873e-02  -3.0744021720722722e-04 -8.9143000546991289e-03 -1.6700876925725500e-02  -4.0155237793978147e-04 -9.2632093123190054e-03 -1.7986522666053273e-02  -3.1534898511063149e-04 -9.6615005126358070e-03 -1.9052459432004020e-02  -1.5537642847899684e-04 -9.9539531009958399e-03 -1.9888636991955113e-02  1.2768739780580883e-04 -1.0289262467359107e-02 -2.0451846784515490e-02  1.1493373435631797e-03 -1.1732454290669266e-02 -2.0280472648011718e-02  0.0000000000000000e+00 0.0000000000000000e+00 0.0000000000000000e+00  -1.6953335280994282e-03 -2.1961292721543934e-03 -4.7517519039656213e-03  -2.4428563152682245e-03 -5.2741778790687654e-03 -1.1803231399800371e-02  -2.5512081210286764e-03 -8.9220241104050642e-03 -2.0393119744820474e-02  -1.6677549682349315e-03 -1.2075875146167933e-02 -2.7608141562111992e-02  -1.8573068195139349e-04 -1.3461339077995156e-02 -2.9829863627423143e-02  4.7291943463843378e-04 -1.3011357400266587e-02 -2.7355567552722056e-02  -2.0268910973636298e-05 -1.2369048009198641e-02 -2.6246853859522506e-02  -3.4120795698751143e-04 -1.2444844094213665e-02 -2.7792208375034391e-02  -2.5947676891022257e-04 -1.2608754934126758e-02 -2.8437299380001051e-02  -2.9835250579469735e-04 -1.2697100842619833e-02 -2.8989566179741352e-02  -1.6798434416253201e-04 -1.2783672201285002e-02 -2.9880465946196033e-02  -7.7743049502316028e-05 -1.2611915791235303e-02 -2.9553828813395033e-02  -3.8860709810331075e-04 -1.2571715787104006e-02 -3.0007334049781707e-02  -5.6190843643773194e-04 -1.3006331680443064e-02 -3.2019090925812392e-02  -4.1179091253322600e-04 -1.3560469406171668e-02 -3.3719076895187571e-02  -1.2942998183208070e-04 -1.4004466329100313e-02 -3.4983855681172835e-02  3.3475643438669048e-04 -1.4562980382487972e-02 -3.5746266727482455e-02  1.0606532370255413e-03 -1.6789089268274219e-02 -3.5365961726105309e-02  0.0000000000000000e+00 0.0000000000000000e+00 0.0000000000000000e+00  -1.6579653680557425e-03 -2.1293085928764622e-03 -6.7014471837837696e-03  -2.4697639654411314e-03 -5.3720240144278630e-03 -1.6455871584409917e-02  -2.6747937094284218e-03 -9.2510765418958012e-03 -2.8259680736618879e-02  -1.8681319003315822e-03 -1.2696116082264704e-02 -3.8271029081423470e-02  -3.1171380761785213e-04 -1.4328077520065777e-02 -4.1745226772305348e-02  5.4905225816644229e-04 -1.3957697693634901e-02 -3.8821178315193265e-02  5.4205116688941299e-05 -1.3267582312134081e-02 -3.7113465270640141e-02  -3.9047221702231640e-04 -1.3307138624952568e-02 -3.8810665507477485e-02  -2.7361830883142917e-04 -1.3470862739788063e-02 -3.9619218997674760e-02  -3.0391925642144250e-04 -1.3565849696327169e-02 -4.0224038559816426e-02  -2.1548863241799949e-04 -1.3666384168983371e-02 -4.1245268413872931e-02  -5.6881587370737714e-05 -1.3488027634403349e-02 -4.0780735125361012e-02  -3.5999629736928394e-04 -1.3420560893058099e-02 -4.1191008770098243e-02  -5.9144214751206416e-04 -1.3852786107542547e-02 -4.3638742207296938e-02  -4.1935095416112888e-04 -1.4441394667015453e-02 -4.5840913678845095e-02  -8.7219190181574759e-05 -1.4949882906625592e-02 -4.7495644645073297e-02  5.7295163396536679e-04 -1.5551971796329516e-02 -4.8596848180317079e-02  1.1875867174523046e-03 -1.8068857213977302e-02 -4.8999139356864473e-02  0.0000000000000000e+00 0.0000000000000000e+00 0.0000000000000000e+00  -6.7988643714710084e-04 1.1600650928038244e-03 -6.1058516154808042e-03  -1.1225130345793924e-03 2.7139806994194359e-03 -1.5742698209821594e-02  -1.2498283141111233e-03 4.4236932659039501e-03 -2.7682712141006552e-02  -8.8609711725608459e-04 5.7361497897118786e-03 -3.7914060435231024e-02  -1.6635542547954098e-04 6.1066440643693159e-03 -4.1289391711390004e-02  2.2497284128549061e-04 5.7606592228584197e-03 -3.8166126159930987e-02  6.2574477417359241e-05 5.5512416238205232e-03 -3.6457560891680334e-02  -8.0103463810532653e-05 5.6749910167157927e-03 -3.8176082331068235e-02  -7.5710771847145746e-05 5.7661085386814309e-03 -3.8994601747276286e-02  -1.0857315565753652e-04 5.8311380899345048e-03 -3.9701804559678942e-02  -4.1431038198011815e-05 5.8557093711227737e-03 -4.0553690326585234e-02  -4.5360921633182296e-06 5.7829415448423481e-03 -3.9940119159092104e-02  -1.1964949111637571e-04 5.9123639322122201e-03 -4.0807919836665915e-02  -1.4474549951839054e-04 6.2432911134630131e-03 -4.3615950696913576e-02  -1.1730126970313083e-05 6.4800527247169948e-03 -4.5654307092816628e-02  2.3535439408676410e-04 6.5761453957456700e-03 -4.6719356930415602e-02  7.5795234333777726e-04 6.7400077928605690e-03 -4.7154254460886523e-02  1.4843411284916170e-03 7.6402163488399864e-03 -4.6484428783990610e-02  0.0000000000000000e+00 0.0000000000000000e+00 0.0000000000000000e+00  -7.2233332706158368e-04 1.0222102292393419e-03 -3.5100654052753802e-03  -1.1551554126764231e-03 2.3728629544492613e-03 -9.9009215141386501e-03  -1.2882482701470866e-03 3.8916211078767935e-03 -1.8271807719468167e-02  -9.3669610366756801e-04 5.0813204894736693e-03 -2.5814413531946429e-02  -2.0749268140345375e-04 5.4580003438813663e-03 -2.8521998239998934e-02  2.3445359325062294e-04 5.1910663848770593e-03 -2.6174837355406679e-02  8.1415832806404424e-05 5.0054611405535576e-03 -2.4823900699279693e-02  -9.9352135721296825e-05 5.1029514513258227e-03 -2.6289030252191398e-02  -8.7291715063392533e-05 5.1873702589015349e-03 -2.7019484970405419e-02  -1.0872924749751758e-04 5.2473622872298885e-03 -2.7613026679651927e-02  -5.4426472193450156e-05 5.2718856218097639e-03 -2.8454865645677958e-02  -5.7972872540991546e-06 5.2134428676911485e-03 -2.8046027567434982e-02  -1.2859903504425097e-04 5.3213416791918836e-03 -2.8645343531912483e-02  -1.8065133678095389e-04 5.6085830740689015e-03 -3.0829027258402822e-02  -5.5791111046403520e-05 5.8236298832430502e-03 -3.2463443735866133e-02  1.4523440295323716e-04 5.9067388106407975e-03 -3.3399599484175389e-02  4.8655665950081634e-04 6.0177836784949344e-03 -3.4003992108763710e-02  1.3876206241196520e-03 6.9777897904291569e-03 -3.4366540339292158e-02  0.0000000000000000e+00 0.0000000000000000e+00 0.0000000000000000e+00  -4.7507960066003234e-04 6.1479546079007874e-04 -1.2310902066952607e-03  -7.5564707030163661e-04 1.4377833738682686e-03 -4.0131254523014031e-03  -8.4801201401439109e-04 2.3927584008130187e-03 -7.9138087120278755e-03  -6.3263018115182338e-04 3.1624431895426555e-03 -1.1658123994211355e-02  -1.6821145051901796e-04 3.4314221356602777e-03 -1.3185948819601478e-02  1.3268051077610789e-04 3.2833632937386776e-03 -1.2114528263268436e-02  4.1019019774012975e-05 3.1688036191156758e-03 -1.1509149556741077e-02  -9.2158442407103581e-05 3.2316276994818539e-03 -1.2460834787966855e-02  -8.4701289624053758e-05 3.2916123539496090e-03 -1.3026065381566152e-02  -9.2937219814064704e-05 3.3366018653488783e-03 -1.3489570314443663e-02  -6.4743613743912788e-05 3.3612101674921502e-03 -1.4165723089977595e-02  -3.0270749483884121e-05 3.3312313028173884e-03 -1.4146061323158453e-02  -1.1075023528709896e-04 3.3992928642229245e-03 -1.4567141260205651e-02  -1.5608493539469884e-04 3.5832881113084208e-03 -1.5850122486587979e-02  -8.1396623218810900e-05 3.7291142467971695e-03 -1.6875411775811075e-02  2.9382672808994658e-05 3.7947293397157023e-03 -1.7566743145842091e-02  1.4602351312226081e-04 3.8328202712534392e-03 -1.8142220402595971e-02  1.2251006938595417e-03 4.6734028492968144e-03 -1.8999748543401477e-02  0.0000000000000000e+00 0.0000000000000000e+00 0.0000000000000000e+00  -1.0163411392089398e-05 1.6727008565893598e-06 -3.1158448666123468e-05  -1.9934175014023767e-05 5.5485671425709563e-06 -1.1953570868252380e-04  -2.8591023103895751e-05 1.1498793860839989e-05 -2.5993748894927995e-04  -3.6215444853888343e-05 1.9304412383621436e-05 -4.4637594095823174e-04  -4.2864653289993914e-05 2.8757005655660059e-05 -6.7310868539731362e-04  -4.8609386395298056e-05 3.9658472174445551e-05 -9.3479115119835747e-04  -5.3518441476580450e-05 5.1820977845587287e-05 -1.2265059932937904e-03  -5.7652279062590645e-05 6.5067275803704303e-05 -1.5436860405002011e-03  -6.1071027795928914e-05 7.9229918525994627e-05 -1.8820830498600309e-03  -6.3838507302788855e-05 9.4151731081880134e-05 -2.2378107059369762e-03  -6.6019856759459513e-05 1.0968756442544931e-04 -2.6073519352013343e-03  -6.7682111987983265e-05 1.2570544175370834e-04 -2.9875635060671374e-03  -6.8892701461129583e-05 1.4208734546175485e-04 -3.3756958019077335e-03  -6.9717898401742726e-05 1.5872961808281204e-04 -3.7693734968175371e-03  -7.0227002429399838e-05 1.7554399776167017e-04 -4.1665972434292466e-03  -7.0494642723788856e-05 1.9246004828420669e-04 -4.5657855515164143e-03  -7.0598834081946377e-05 2.0942691023070656e-04 -4.9658000792031235e-03  -7.0618627522856900e-05 2.2641452336802812e-04 -5.3659606097127928e-03  0.0000000000000000e+00 0.0000000000000000e+00 0.0000000000000000e+00  -1.0296720951965529e-05 2.5212682644070162e-06 -3.0646295801164553e-05  -2.0759472482454158e-05 6.2425222841302202e-06 -1.1897046827814447e-04  -2.9971482331153660e-05 1.2108929832558878e-05 -2.5932167236671940e-04  -3.8095015941149551e-05 1.9837565663025426e-05 -4.4571185881080822e-04  -4.5187776097167739e-05 2.9218852782858737e-05 -6.7240088558415307e-04  -5.1322738553854942e-05 4.0054756308260627e-05 -9.3404515226582125e-04  -5.6572054631990466e-05 5.2156590842744644e-05 -1.2257275500180485e-03  -6.0999094645466333e-05 6.5346597739665891e-05 -1.5428801488193632e-03  -6.4666209974854189e-05 7.9457651856023147e-05 -1.8812540384666690e-03  -6.7639999890785045e-05 9.4332803128730177e-05 -2.2369626020712565e-03  -6.9988799267300627e-05 1.0982700913847709e-04 -2.6064883506826514e-03  -7.1782979756498708e-05 1.2580843939118998e-04 -2.9866875847540048e-03  -7.3093789720955649e-05 1.4215894229937265e-04 -3.3748102212980162e-03  -7.3991333752717917e-05 1.5877490288895705e-04 -3.7684804721255199e-03  -7.4548808944711149e-05 1.7556851296554759e-04 -4.1656985430887361e-03  -7.4845377909496847e-05 1.9246970722630442e-04 -4.5648823420901203e-03  -7.4964054694717542e-05 2.0942764972554524e-04 -4.9648925971674078e-03  -7.4989201763484958e-05 2.2641122940162125e-04 -5.3650493798037633e-03  0.0000000000000000e+00 0.0000000000000000e+00 0.0000000000000000e+00  -5.3892129881276017e-04 -6.0320537246360271e-04 -2.0604780478887248e-03  -7.9301096960759476e-04 -1.3779672774562081e-03 -5.2822296451195648e-03  -8.5436249138576335e-04 -2.3016201094149969e-03 -9.2499857473987476e-03  -6.0183098930020407e-04 -3.0785106203400684e-03 -1.2548982342825822e-02  -1.2953370800822652e-04 -3.3880985426939150e-03 -1.3401526020204653e-02  1.2095468999203448e-04 -3.2388921034143293e-03 -1.2088662163959282e-02  -7.8266842444840514e-06 -3.0681504822608731e-03 -1.1780559572920603e-02  -1.2865214648756225e-04 -3.0858255555193119e-03 -1.2845527518826252e-02  -1.2191841873986985e-04 -3.1145597927914096e-03 -1.3311128962441531e-02  -1.3443503307916188e-04 -3.1248386735969308e-03 -1.3769496729974353e-02  -9.3352076666966053e-05 -3.1323283176753879e-03 -1.4421781043282851e-02  -5.6496144809787455e-05 -3.0702484667289066e-03 -1.4421456456370517e-02  -1.4240573223724221e-04 -3.0489929773533163e-03 -1.4885216746664390e-02  -1.9567139815346589e-04 -3.1488142496139647e-03 -1.6124860338702487e-02  -1.4233794480802433e-04 -3.2748408155983707e-03 -1.7120950650008307e-02  -3.3290110546870067e-05 -3.3692817499122178e-03 -1.7890553230365192e-02  1.2293462983164316e-04 -3.5222281263293407e-03 -1.8364497013326802e-02  8.9429180255509028e-04 -4.1462321413799300e-03 -1.7660581232493606e-02  0.0000000000000000e+00 0.0000000000000000e+00 0.0000000000000000e+00  -7.6368262390778677e-04 -9.5857595601339554e-04 -4.5549909569517011e-03  -1.1723317180292792e-03 -2.3354637695100627e-03 -1.1460524453096135e-02  -1.2760323338489607e-03 -3.9834626314545866e-03 -1.9857158939804657e-02  -9.1085490038626945e-04 -5.4248478549517943e-03 -2.6914820328249496e-02  -1.9058304132419805e-04 -6.0782149314272263e-03 -2.9043835250679013e-02  2.1932556387823567e-04 -5.8884722232112503e-03 -2.6510241771524112e-02  2.8243635068128565e-05 -5.5843517643455083e-03 -2.5374588109481098e-02  -1.7109086636601895e-04 -5.5948664323099877e-03 -2.6944988558836140e-02  -1.5535996319890457e-04 -5.6532729552819403e-03 -2.7605005896609056e-02  -1.7380426761