<?xml version="1.0"?>
<VTKFile type="UnstructuredGrid"  version="0.1"  >
<UnstructuredGrid>
<Piece  NumberOfPoints="760" NumberOfCells="3024">
<Points>
<DataArray  type="Float64"  NumberOfComponents="3"  format="ascii">0 0 0  0.05555555555555555 0 0  0.1111111111111111 0 0  0.1666666666666667 0 0  0.2222222222222222 0 0  0.2777777777777778 0 0  0.3333333333333333 0 0  0.3888888888888889 0 0  0.4444444444444444 0 0  0.5 0 0  0.5555555555555556 0 0  0.6111111111111112 0 0  0.6666666666666666 0 0  0.7222222222222222 0 0  0.7777777777777778 0 0  0.8333333333333334 0 0  0.8888888888888888 0 0  0.9444444444444444 0 0  1 0 0  0 0.01428571428571429 0  0.05555555555555555 0.01428571428571429 0  0.1111111111111111 0.01428571428571429 0  0.1666666666666667 0.01428571428571429 0  0.2222222222222222 0.01428571428571429 0  0.2777777777777778 0.01428571428571429 0  0.3333333333333333 0.01428571428571429 0  0.3888888888888889 0.01428571428571429 0  0.4444444444444444 0.01428571428571429 0  0.5 0.01428571428571429 0  0.5555555555555556 0.01428571428571429 0  0.6111111111111112 0.01428571428571429 0  0.6666666666666666 0.01428571428571429 0  0.7222222222222222 0.01428571428571429 0  0.7777777777777778 0.01428571428571429 0  0.8333333333333334 0.01428571428571429 0  0.8888888888888888 0.01428571428571429 0  0.9444444444444444 0.01428571428571429 0  1 0.01428571428571429 0  0 0.02857142857142857 0  0.05555555555555555 0.02857142857142857 0  0.1111111111111111 0.02857142857142857 0  0.1666666666666667 0.02857142857142857 0  0.2222222222222222 0.02857142857142857 0  0.2777777777777778 0.02857142857142857 0  0.3333333333333333 0.02857142857142857 0  0.3888888888888889 0.02857142857142857 0  0.4444444444444444 0.02857142857142857 0  0.5 0.02857142857142857 0  0.5555555555555556 0.02857142857142857 0  0.6111111111111112 0.02857142857142857 0  0.6666666666666666 0.02857142857142857 0  0.7222222222222222 0.02857142857142857 0  0.7777777777777778 0.02857142857142857 0  0.8333333333333334 0.02857142857142857 0  0.8888888888888888 0.02857142857142857 0  0.9444444444444444 0.02857142857142857 0  1 0.02857142857142857 0  0 0.04285714285714286 0  0.05555555555555555 0.04285714285714286 0  0.1111111111111111 0.04285714285714286 0  0.1666666666666667 0.04285714285714286 0  0.2222222222222222 0.04285714285714286 0  0.2777777777777778 0.04285714285714286 0  0.3333333333333333 0.04285714285714286 0  0.3888888888888889 0.04285714285714286 0  0.4444444444444444 0.04285714285714286 0  0.5 0.04285714285714286 0  0.5555555555555556 0.04285714285714286 0  0.6111111111111112 0.04285714285714286 0  0.6666666666666666 0.04285714285714286 0  0.7222222222222222 0.04285714285714286 0  0.7777777777777778 0.04285714285714286 0  0.8333333333333334 0.04285714285714286 0  0.8888888888888888 0.04285714285714286 0  0.9444444444444444 0.04285714285714286 0  1 0.04285714285714286 0  0 0.05714285714285715 0  0.05555555555555555 0.05714285714285715 0  0.1111111111111111 0.05714285714285715 0  0.1666666666666667 0.05714285714285715 0  0.2222222222222222 0.05714285714285715 0  0.2777777777777778 0.05714285714285715 0  0.3333333333333333 0.05714285714285715 0  0.3888888888888889 0.05714285714285715 0  0.4444444444444444 0.05714285714285715 0  0.5 0.05714285714285715 0  0.5555555555555556 0.05714285714285715 0  0.6111111111111112 0.05714285714285715 0  0.6666666666666666 0.05714285714285715 0  0.7222222222222222 0.05714285714285715 0  0.7777777777777778 0.05714285714285715 0  0.8333333333333334 0.05714285714285715 0  0.8888888888888888 0.05714285714285715 0  0.9444444444444444 0.05714285714285715 0  1 0.05714285714285715 0  0 0.07142857142857142 0  0.05555555555555555 0.07142857142857142 0  0.1111111111111111 0.07142857142857142 0  0.1666666666666667 0.07142857142857142 0  0.2222222222222222 0.07142857142857142 0  0.2777777777777778 0.07142857142857142 0  0.3333333333333333 0.07142857142857142 0  0.3888888888888889 0.07142857142857142 0  0.4444444444444444 0.07142857142857142 0  0.5 0.07142857142857142 0  0.5555555555555556 0.07142857142857142 0  0.6111111111111112 0.07142857142857142 0  0.6666666666666666 0.07142857142857142 0  0.7222222222222222 0.07142857142857142 0  0.7777777777777778 0.07142857142857142 0  0.8333333333333334 0.07142857142857142 0  0.8888888888888888 0.07142857142857142 0  0.9444444444444444 0.07142857142857142 0  1 0.07142857142857142 0  0 0.08571428571428573 0  0.05555555555555555 0.08571428571428573 0  0.1111111111111111 0.08571428571428573 0  0.1666666666666667 0.08571428571428573 0  0.2222222222222222 0.08571428571428573 0  0.2777777777777778 0.08571428571428573 0  0.3333333333333333 0.08571428571428573 0  0.3888888888888889 0.08571428571428573 0  0.4444444444444444 0.08571428571428573 0  0.5 0.08571428571428573 0  0.5555555555555556 0.08571428571428573 0  0.6111111111111112 0.08571428571428573 0  0.6666666666666666 0.08571428571428573 0  0.7222222222222222 0.08571428571428573 0  0.7777777777777778 0.08571428571428573 0  0.8333333333333334 0.08571428571428573 0  0.8888888888888888 0.08571428571428573 0  0.9444444444444444 0.08571428571428573 0  1 0.08571428571428573 0  0 0.1 0  0.05555555555555555 0.1 0  0.1111111111111111 0.1 0  0.1666666666666667 0.1 0  0.2222222222222222 0.1 0  0.2777777777777778 0.1 0  0.3333333333333333 0.1 0  0.3888888888888889 0.1 0  0.4444444444444444 0.1 0  0.5 0.1 0  0.5555555555555556 0.1 0  0.6111111111111112 0.1 0  0.6666666666666666 0.1 0  0.7222222222222222 0.1 0  0.7777777777777778 0.1 0  0.8333333333333334 0.1 0  0.8888888888888888 0.1 0  0.9444444444444444 0.1 0  1 0.1 0  0 0 0.01  0.05555555555555555 0 0.01  0.1111111111111111 0 0.01  0.1666666666666667 0 0.01  0.2222222222222222 0 0.01  0.2777777777777778 0 0.01  0.3333333333333333 0 0.01  0.3888888888888889 0 0.01  0.4444444444444444 0 0.01  0.5 0 0.01  0.5555555555555556 0 0.01  0.6111111111111112 0 0.01  0.6666666666666666 0 0.01  0.7222222222222222 0 0.01  0.7777777777777778 0 0.01  0.8333333333333334 0 0.01  0.8888888888888888 0 0.01  0.9444444444444444 0 0.01  1 0 0.01  0 0.01428571428571429 0.01  0.05555555555555555 0.01428571428571429 0.01  0.1111111111111111 0.01428571428571429 0.01  0.1666666666666667 0.01428571428571429 0.01  0.2222222222222222 0.01428571428571429 0.01  0.2777777777777778 0.01428571428571429 0.01  0.3333333333333333 0.01428571428571429 0.01  0.3888888888888889 0.01428571428571429 0.01  0.4444444444444444 0.01428571428571429 0.01  0.5 0.01428571428571429 0.01  0.5555555555555556 0.01428571428571429 0.01  0.6111111111111112 0.01428571428571429 0.01  0.6666666666666666 0.01428571428571429 0.01  0.7222222222222222 0.01428571428571429 0.01  0.7777777777777778 0.01428571428571429 0.01  0.8333333333333334 0.01428571428571429 0.01  0.8888888888888888 0.01428571428571429 0.01  0.9444444444444444 0.01428571428571429 0.01  1 0.01428571428571429 0.01  0 0.02857142857142857 0.01  0.05555555555555555 0.02857142857142857 0.01  0.1111111111111111 0.02857142857142857 0.01  0.1666666666666667 0.02857142857142857 0.01  0.2222222222222222 0.02857142857142857 0.01  0.2777777777777778 0.02857142857142857 0.01  0.3333333333333333 0.02857142857142857 0.01  0.3888888888888889 0.02857142857142857 0.01  0.4444444444444444 0.02857142857142857 0.01  0.5 0.02857142857142857 0.01  0.5555555555555556 0.02857142857142857 0.01  0.6111111111111112 0.02857142857142857 0.01  0.6666666666666666 0.02857142857142857 0.01  0.7222222222222222 0.02857142857142857 0.01  0.7777777777777778 0.02857142857142857 0.01  0.8333333333333334 0.02857142857142857 0.01  0.8888888888888888 0.02857142857142857 0.01  0.9444444444444444 0.02857142857142857 0.01  1 0.02857142857142857 0.01  0 0.04285714285714286 0.01  0.05555555555555555 0.04285714285714286 0.01  0.1111111111111111 0.04285714285714286 0.01  0.1666666666666667 0.04285714285714286 0.01  0.2222222222222222 0.04285714285714286 0.01  0.2777777777777778 0.04285714285714286 0.01  0.3333333333333333 0.04285714285714286 0.01  0.3888888888888889 0.04285714285714286 0.01  0.4444444444444444 0.04285714285714286 0.01  0.5 0.04285714285714286 0.01  0.5555555555555556 0.04285714285714286 0.01  0.6111111111111112 0.04285714285714286 0.01  0.6666666666666666 0.04285714285714286 0.01  0.7222222222222222 0.04285714285714286 0.01  0.7777777777777778 0.04285714285714286 0.01  0.8333333333333334 0.04285714285714286 0.01  0.8888888888888888 0.04285714285714286 0.01  0.9444444444444444 0.04285714285714286 0.01  1 0.04285714285714286 0.01  0 0.05714285714285715 0.01  0.05555555555555555 0.05714285714285715 0.01  0.1111111111111111 0.05714285714285715 0.01  0.1666666666666667 0.05714285714285715 0.01  0.2222222222222222 0.05714285714285715 0.01  0.2777777777777778 0.05714285714285715 0.01  0.3333333333333333 0.05714285714285715 0.01  0.3888888888888889 0.05714285714285715 0.01  0.4444444444444444 0.05714285714285715 0.01  0.5 0.05714285714285715 0.01  0.5555555555555556 0.05714285714285715 0.01  0.6111111111111112 0.05714285714285715 0.01  0.6666666666666666 0.05714285714285715 0.01  0.7222222222222222 0.05714285714285715 0.01  0.7777777777777778 0.05714285714285715 0.01  0.8333333333333334 0.05714285714285715 0.01  0.8888888888888888 0.05714285714285715 0.01  0.9444444444444444 0.05714285714285715 0.01  1 0.05714285714285715 0.01  0 0.07142857142857142 0.01  0.05555555555555555 0.07142857142857142 0.01  0.1111111111111111 0.07142857142857142 0.01  0.1666666666666667 0.07142857142857142 0.01  0.2222222222222222 0.07142857142857142 0.01  0.2777777777777778 0.07142857142857142 0.01  0.3333333333333333 0.07142857142857142 0.01  0.3888888888888889 0.07142857142857142 0.01  0.4444444444444444 0.07142857142857142 0.01  0.5 0.07142857142857142 0.01  0.5555555555555556 0.07142857142857142 0.01  0.6111111111111112 0.07142857142857142 0.01  0.6666666666666666 0.07142857142857142 0.01  0.7222222222222222 0.07142857142857142 0.01  0.7777777777777778 0.07142857142857142 0.01  0.8333333333333334 0.07142857142857142 0.01  0.8888888888888888 0.07142857142857142 0.01  
[...]
<PointData  Vectors="f_36"> 
<DataArray  type="Float64"  Name="f_36"  NumberOfComponents="3" format="ascii">0.0000000000000000e+00 0.0000000000000000e+00 0.0000000000000000e+00  1.9672761481399721e-03 -3.8381381030793836e-03 8.8605249886525711e-03  2.3223475485350223e-03 -7.4368472678944713e-03 1.9328627670593422e-02  1.8264841020655417e-03 -1.0299256588439477e-02 2.8691081042420262e-02  6.6035939544397673e-04 -1.1617539780281412e-02 3.4073454250376362e-02  -6.5302914142425735e-04 -1.1008748004384809e-02 3.3197275389637945e-02  -1.2456605295698227e-03 -9.2359986414173242e-03 2.7572368197304586e-02  -7.7766727682796041e-04 -7.7988436648364478e-03 2.2316469390773599e-02  -5.4092465160453700e-06 -7.4993536976584591e-03 2.1339646283553362e-02  7.0793697140085661e-05 -7.6442058082309902e-03 2.2809012560612289e-02  -3.7735912410081645e-04 -7.2150011840053470e-03 2.2146861538433572e-02  -5.4253953285640546e-04 -6.3427017641300961e-03 1.9347353427504252e-02  -3.6281065242028341e-04 -5.6797163305605343e-03 1.7271029806852006e-02  -1.6355399496221688e-04 -5.3719052938039228e-03 1.6431597314950249e-02  -7.0966114719941715e-05 -5.2816001086497914e-03 1.6357515443255650e-02  -1.1792161353825037e-04 -5.2279559524898095e-03 1.6500812993075532e-02  -2.1890968785745398e-04 -5.1052397292694696e-03 1.6319407254116514e-02  -4.0186503052593118e-04 -5.0120372278211357e-03 1.6096694545852202e-02  -6.8565332321165876e-04 -5.2676318710302749e-03 1.5693716383929964e-02  0.0000000000000000e+00 0.0000000000000000e+00 0.0000000000000000e+00  1.8895840576455983e-03 -3.2539554763378999e-03 5.4624850614294835e-03  2.2424760652256688e-03 -6.5597647172055676e-03 1.2667910934070990e-02  1.8057816310908684e-03 -9.3019462890885831e-03 1.9379983483565850e-02  7.3505905810967022e-04 -1.0685704087189263e-02 2.3495485766136161e-02  -5.3671355123000562e-04 -1.0274006214121138e-02 2.3144035259706097e-02  -1.1886465132738156e-03 -8.6781073993696892e-03 1.9159506066068917e-02  -8.1547893480620913e-04 -7.2800830991917144e-03 1.5254313541539048e-02  -4.7825937398596358e-05 -6.9273768708365989e-03 1.4546445610868061e-02  1.1369959911684213e-04 -7.0714401496472087e-03 1.5857003919513418e-02  -3.1253538460979027e-04 -6.7280477002015339e-03 1.5601482599690686e-02  -5.2615141991738958e-04 -5.9316396185231700e-03 1.3623376879798912e-02  -3.6067382749266130e-04 -5.2905704061681309e-03 1.2162022087754146e-02  -1.5819038539043457e-04 -4.9803887955635695e-03 1.1622384082074113e-02  -5.8536567320088331e-05 -4.8859065137659471e-03 1.1637749498920168e-02  -8.8212981910203457e-05 -4.8401004176290129e-03 1.1828092784747538e-02  -1.7175507318462887e-04 -4.7326191147240978e-03 1.1766192660972920e-02  -2.7905293422368996e-04 -4.6491205471127619e-03 1.1695824475892456e-02  -6.7269898090912541e-04 -5.0244147524977851e-03 1.1636571290595034e-02  0.0000000000000000e+00 0.0000000000000000e+00 0.0000000000000000e+00  1.1536768045796908e-03 -1.9683450067777557e-03 2.2954026579135767e-03  1.3987570271454719e-03 -4.1581045159643131e-03 5.7117571243696938e-03  1.1476704310886671e-03 -6.0867653329835861e-03 9.0228456159557307e-03  5.0368277956850305e-04 -7.1560458280628915e-03 1.1192797282313146e-02  -2.8576923849970079e-04 -6.9840597486754566e-03 1.1200342241243878e-02  -7.1675546178538762e-04 -5.9087177458503485e-03 9.3267611777245255e-03  -5.1173207299277381e-04 -4.8889128198899776e-03 7.3942270622808825e-03  -2.7640395612899173e-05 -4.6070985075680063e-03 7.0780826897315578e-03  1.0488155075676372e-04 -4.7467518168405054e-03 7.8869691918724474e-03  -1.5514505217776911e-04 -4.5674524251623156e-03 7.9270322040292732e-03  -3.0696464025772190e-04 -4.0282552215451621e-03 7.0311120807631669e-03  -2.0716673955545420e-04 -3.5727415362106431e-03 6.3848352620510581e-03  -7.6924246320984738e-05 -3.3514745468693095e-03 6.2093339998065405e-03  -1.1629357100340541e-05 -3.2891821390217250e-03 6.3080933273322601e-03  -2.4016563396757017e-05 -3.2699385881059598e-03 6.5033231971789790e-03  -7.0790359582950457e-05 -3.2085686782543621e-03 6.5666250725802183e-03  -8.9821185310380355e-05 -3.1419467343565132e-03 6.6329788172786270e-03  -6.4293216732471000e-04 -3.6557045058752346e-03 6.8329089711137748e-03  0.0000000000000000e+00 0.0000000000000000e+00 0.0000000000000000e+00  9.6291576236588275e-06 -8.2754705503817104e-07 1.4579067184496648e-05  1.8086922461316672e-05 -2.6131966145492480e-06 5.3904247060415485e-05  2.5412038119039660e-05 -5.3246552096166320e-06 1.1544890248320717e-04  3.1655704417887486e-05 -8.8265583224118593e-06 1.9602103579468219e-04  3.6929630529323765e-05 -1.3011301930857721e-05 2.9270945030489227e-04  4.1355988650701006e-05 -1.7781357052118782e-05 4.0296067419428466e-04  4.5040559073523495e-05 -2.3050524573067975e-05 5.2456370638187067e-04  4.8063050726800768e-05 -2.8741719709249366e-05 6.5556566085576192e-04  5.0490487708406937e-05 -3.4783986003502000e-05 7.9419660807378723e-04  5.2395500154603771e-05 -4.1111592800475997e-05 9.3886958658270553e-04  5.3856154088627058e-05 -4.7665898296415543e-05 1.0882218630822659e-03  5.4943537826114054e-05 -5.4396257796443683e-05 1.2411126512700179e-03  5.5718015451787267e-05 -6.1258685141738566e-05 1.3965821573490337e-03  5.6234029223060824e-05 -6.8215076078268519e-05 1.5538263468064652e-03  5.6544396278075627e-05 -7.5233323398358768e-05 1.7121889352490424e-03  5.6702350955571882e-05 -8.2287481861176618e-05 1.8711618606557642e-03  5.6760688641767673e-05 -8.9358274037895045e-05 2.0303887669549047e-03  5.6771016196205065e-05 -9.6434720092194700e-05 2.1896616392685733e-03  0.0000000000000000e+00 0.0000000000000000e+00 0.0000000000000000e+00  9.1044995164620914e-06 -1.3365747510898107e-06 1.4427267911497799e-05  1.7921653129383937e-05 -3.0573715471878812e-06 5.3683376092751018e-05  2.5575206118970302e-05 -5.7047185228071240e-06 1.1519724725392187e-04  3.2106408401129864e-05 -9.1467498102708965e-06 1.9574068129736368e-04  3.7629064079526165e-05 -1.3279649863004228e-05 2.9240296310689636e-04  4.2269041761717007e-05 -1.8005277648427755e-05 4.0263145742626573e-04  4.6137635966130183e-05 -2.3235176278495917e-05 5.2421545704469297e-04  4.9318901823438142e-05 -2.8890536937219092e-05 6.5520126048439079e-04  5.1881214434298917e-05 -3.4900641994493518e-05 7.9381780370350213e-04  5.3897476073550200e-05 -4.1200824008870908e-05 9.3847778870696297e-04  5.5447840969142061e-05 -4.7732365464121568e-05 1.0878186813995392e-03  5.6606662136411604e-05 -5.4443664474509683e-05 1.2406995477265432e-03  5.7436810310038615e-05 -6.1290153764408816e-05 1.3961602816259745e-03  5.7994540789543016e-05 -6.8233613524492382e-05 1.5533967793186540e-03  5.8334189369649994e-05 -7.5242027045368788e-05 1.7117528199750633e-03  5.8510535139975905e-05 -8.2289538755415996e-05 1.8707204411258014e-03  5.8578359228584949e-05 -8.9356734392337852e-05 2.0299433232786449e-03  5.8591495887798172e-05 -9.6431855679537424e-05 2.1892130483953877e-03  0.0000000000000000e+00 0.0000000000000000e+00 0.0000000000000000e+00  1.2719684734029777e-03 2.1742159472086611e-03 3.3743464157025300e-03  1.3942406732854421e-03 4.5241316284277498e-03 7.2410431721214325e-03  1.0624901135048602e-03 6.6256936841527616e-03 1.0610779772895700e-02  3.6988814589036079e-04 7.8458389737326439e-03 1.2475810304804163e-02  -3.8211322134584411e-04 7.7688880946680978e-03 1.2000752782519573e-02  -6.9367303249040372e-04 6.6862108019840553e-03 9.8476415745213687e-03  -3.9367932694257411e-04 5.5563284266821056e-03 8.0274762544023867e-03  5.1458811809207037e-05 5.1434081120408006e-03 7.9535139299480966e-03  9.1270860233886293e-05 5.2254098453637125e-03 8.7032057801533103e-03  -1.5476012410744211e-04 5.0727001552604368e-03 8.5588843209556901e-03  -2.6065014896231543e-04 4.5403439082731195e-03 7.6642302667720369e-03  -1.9199994853035736e-04 3.9971545140762305e-03 7.0046985750234535e-03  -9.4628256230469882e-05 3.6320243520888448e-03 6.6949621941525218e-03  -2.8693688471399737e-05 3.4281907951541428e-03 6.6446916030857613e-03  -4.0618442195376117e-05 3.2994297015946604e-03 6.7008431840034563e-03  -7.6220576932519728e-05 3.1531885954035966e-03 6.6142044925780350e-03  -1.1335483353427589e-04 3.0899239596027675e-03 6.5962146335564733e-03  -3.9047230948373475e-04 3.4520725768539501e-03 6.4894188972133273e-03  0.0000000000000000e+00 0.0000000000000000e+00 0.0000000000000000e+00  2.0106639608446185e-03 2.8086435250372728e-03 6.6283444006030173e-03  2.2488520496988140e-03 6.0923520828346763e-03 1.4206995981695579e-02  1.7272356345486137e-03 9.0803879529422777e-03 2.0837780698329689e-02  6.2655122552262459e-04 1.0914632109780994e-02 2.4561888210075135e-02  -6.0322882501872481e-04 1.0980542591062802e-02 2.3775468996044068e-02  -1.1546521943352646e-03 9.5896469715652400e-03 1.9650335068099833e-02  -7.0390716645399342e-04 8.0022112204656184e-03 1.5944876583799689e-02  3.8372527191693774e-05 7.3251748537826603e-03 1.5438753570051006e-02  1.4186796077639369e-04 7.3781749371545531e-03 1.6607794340536840e-02  -2.6393655381019192e-04 7.1929213976058568e-03 1.6229581157100870e-02  -4.5910770426807977e-04 6.4886310281146338e-03 1.4386155184093731e-02  -3.4997903673075450e-04 5.7259990201993629e-03 1.2903087600958284e-02  -1.9320744869592737e-04 5.1920490270472991e-03 1.2086730210282493e-02  -8.3807441846391254e-05 4.8853021063541583e-03 1.1776478383232624e-02  -9.6578734966748576e-05 4.6967415960174983e-03 1.1702609254699880e-02  -1.6938172545088198e-04 4.4987049760901966e-03 1.1390507630066486e-02  -2.3716359022018751e-04 4.4318817853335841e-03 1.1198574117428835e-02  -4.1015001350390049e-04 5.0086690913920453e-03 1.0920622067497519e-02  0.0000000000000000e+00 0.0000000000000000e+00 0.0000000000000000e+00  2.0332068216591202e-03 2.7343341146525441e-03 9.1328194266524672e-03  2.3522228770310304e-03 6.2403221301655810e-03 1.9618547721959284e-02  1.8666853540932552e-03 9.4751784257920916e-03 2.8878317521014763e-02  7.7308878648813765e-04 1.1546828287836845e-02 3.4213067253949257e-02  -5.3831406172244510e-04 1.1760113510327994e-02 3.3470720585674865e-02  -1.2189646680514843e-03 1.0368641720562946e-02 2.8092755285360243e-02  -8.2038654841072123e-04 8.6669170205300045e-03 2.2964755273627912e-02  8.8057304133461607e-06 7.8771243421844189e-03 2.1877765255637352e-02  2.0878515066634964e-04 7.8967068431446408e-03 2.3144909467073978e-02  -2.2669740386291803e-04 7.7197673937504764e-03 2.2616306972866214e-02  -4.8454025055060825e-04 6.9968323487551564e-03 2.0127915405408699e-02  -3.7642753864673478e-04 6.1832343715274730e-03 1.7976884565416906e-02  -2.1026979775744372e-04 5.5957008867517574e-03 1.6703567405055530e-02  -9.0546751197668709e-05 5.2518881440020860e-03 1.6128344673612609e-02  -9.3076033663835596e-05 5.0458990597452569e-03 1.5912041212854892e-02  -1.9486077560239808e-04 4.8402339633430817e-03 1.5442473928650009e-02  -3.2675958204363392e-04 4.7643024013367596e-03 1.5154072499523476e-02  -4.6133355746566160e-04 5.4305857951117541e-03 1.5023510051305870e-02  0.0000000000000000e+00 0.0000000000000000e+00 0.0000000000000000e+00  7.9123375560142140e-04 -1.4985167085476857e-03 8.5378087258079580e-03  1.0367110417413197e-03 -3.1011388882589597e-03 1.8973618560930244e-02  8.6700186579280990e-04 -4.3999143893472753e-03 2.8329908851059436e-02  3.8933677360177780e-04 -5.0479001685963627e-03 3.3770723175655146e-02  -2.0010002772132498e-04 -4.8340834205693331e-03 3.2982225483756601e-02  -5.3497896350738247e-04 -4.0532497147372660e-03 2.7397097272295209e-02  -4.0644772153592372e-04 -3.3813047247994651e-03 2.2109121832674272e-02  -6.8932480262273374e-05 -3.2329179612844887e-03 2.1095503784244175e-02  2.5070518246086333e-05 -3.3290235523046126e-03 2.2592746289304039e-02  -1.3974208212435836e-04 -3.1736446604842465e-03 2.1987169092990769e-02  -2.3586919320171468e-04 -2.7925525895648182e-03 1.9205858017429609e-02  -1.8606465274632935e-04 -2.4965939561628239e-03 1.7122548587292456e-02  -1.1325408726590283e-04 -2.3633999970141357e-03 1.6280225076231121e-02  -8.2117619450415374e-05 -2.3277056354201338e-03 1.6208185804023379e-02  -1.1738819908990962e-04 -2.3095810102390251e-03 1.6359730666640152e-02  -1.9586899021233005e-04 -2.2614772583723626e-03 1.6185446268309440e-02  -3.5433893799013754e-04 -2.2694192350556663e-03 1.5962447163026340e-02  -5.9747732699526193e-04 -2.5764599545987292e-03 1.5558824423991041e-02  0.0000000000000000e+00 0.0000000000000000e+00 0.0000000000000000e+00  8.5791456069629971e-04 -1.3179528562873015e-03 5.2311203987814772e-03  1.0898593413997391e-03 -2.7130508185897141e-03 1.2394088675666560e-02  9.0893524132716207e-04 -3.8831168764566536e-03 1.9080946923304858e-02  4.2020457279054327e-04 -4.4921139294844233e-03 2.3221568766790681e-02  -1.9275844370469062e-04 -4.3426038034799479e-03 2.2923762115357994e-02  -5.5484575705984048e-04 -3.6754184927537247e-03 1.8963279953784384e-02  -4.3591433469368859e-04 -3.0748915091232251e-03 1.5033303556810594e-02  -7.8438618222197255e-05 -2.9192357790032769e-03 1.4302346188361272e-02  4.1319376713613593e-05 -2.9911208887489077e-03 1.5643471954360999e-02  -1.3136776706556411e-04 -2.8613725291323010e-03 1.5437508012252828e-02  -2.4739693517003222e-04 -2.5306825892570670e-03 1.3472152097771029e-02  -1.9311320372217080e-04 -2.2624839616731227e-03 1.2005540729390562e-02  -1.0949779082996137e-04 -2.1357891173285071e-03 1.1468724468420090e-02  -7.1029497427261613e-05 -2.0987511902335154e-03 1.1489839635917700e-02  -9.7268544595852319e-05 -2.0812709542088284e-03 1.1689215415002891e-02  -1.5932181089239414e-04 -2.0371940395961961e-03 1.1633878698782843e-02  -2.5338913381524900e-04 -2.0298850688582589e-03 1.1566605747552845e-02  -5.5263106655511194e-04 -2.3558546629924453e-03 1.1540586175213433e-02  0.0000000000000000e+00 0.0000000000000000e+00 0.0000000000000000e+00  5.6778829861260606e-04 -8.0016217558777694e-04 2.0198081701516685e-03  7.1910973012560624e-04 -1.6560743837363107e-03 5.2571631493772619e-03  6.0306613292602769e-04 -2.4032293077567643e-03 8.4223809124093062e-03  2.8822047244243766e-04 -2.8123293255541103e-03 1.0533351476474679e-02  -1.1167558685977657e-04 -2.7465299542761778e-03 1.0571981965903180e-02  -3.5385155402235178e-04 -2.3415912861048430e-03 8.7637315810486956e-03  -2.8251016458116774e-04 -1.9594532761077871e-03 6.8721380753231079e-03  -4.6519905965977368e-05 -1.8506290095645420e-03 6.5704904221519263e-03  4.1811509384546299e-05 -1.8955654230562744e-03 7.4082789634135849e-03  -6.9957760175055778e-05 -1.8234244653782300e-03 7.4971919730862317e-03  -1.5252994886948856e-04 -1.6211010744392788e-03 6.6390183272018802e-03  -1.1658682234916106e-04 -1.4511535601000438e-03 6.0177219892741706e-03  -5.8382963718931823e-05 -1.3691470577362546e-03 5.8635395138301382e-03  -3.0940143245385157e-05 -1.3460071704061601e-03 5.9758849679655973e-03  -4.3762669087078784e-05 -1.3380796468064247e-03 6.1821113563298672e-03  -7.6936389129720278e-05 -1.3147195590723511e-03 6.2556170087061545e-03  -1.0156173252101639e-04 -1.2975309750780394e-03 6.3269280344287636e-03  -4.5884841090775182e-04 -1.5805715101207050e-03 6.5354962056655419e-03  0.0000000000000000e+00 0.0000000000000000e+00 0.0000000000000000e+00  4.5337277672495892e-06 -7.6571043811989221e-07 1.4180621779501211e-05  8.7849014976267665e-06 -2.5292850848744283e-06 5.3549916009322578e-05  1.2435935934354437e-05 -5.2068366413624379e-06 1.1514163092984818e-04  1.5548256033375393e-05 -8.6789247972471711e-06 1.9575898064163208e-04  1.8177483969941457e-05 -1.2837132642370019e-05 2.9248799765365800e-04  2.0384110431806566e-05 -1.7584468660947412e-05 4.0277491728193444e-04  2.2221505402499094e-05 -2.2834312037545835e-05 5.2440936615565353e-04  2.3730256432927574e-05 -2.8508549263860643e-05 6.5543933896198127e-04  2.4943704650902147e-05 -3.4535569051326670e-05 7.9409530012621260e-04  2.5897188118967072e-05 -4.0849784734803188e-05 9.3879013354397905e-04  2.6629086084506547e-05 -4.7392681409404599e-05 1.0881610148724234e-03  2.7174936529369173e-05 -5.4113231188575115e-05 1.2410674549385636e-03  2.7564956839527467e-05 -6.0967099571009567e-05 1.3965500441338080e-03  2.7826182552163779e-05 -6.7916135705167906e-05 1.5538049666147860e-03  2.7984681800405469e-05 -7.4928327629348332e-05 1.7121760080076622e-03  2.8066669098957069e-05 -8.1977843644002183e-05 1.8711551039801216e-03  2.8098132437149275e-05 -8.9045442328486324e-05 2.0303858920694058e-03  2.8103956687438106e-05 -9.6119608480380020e-05 2.1896594857846586e-03  0.0000000000000000e+00 0.0000000000000000e+00 0.0000000000000000e+00  4.6030366121457253e-06 -1.1399477067073717e-06 1.3946398376336447e-05  9.1695889193656611e-06 -2.8253109020478373e-06 5.3290369675167451e-05  1.3066971811011136e-05 -5.4584242646180893e-06 1.1485709722929513e-04  1.6394313170645306e-05 -8.8914866040275273e-06 1.9545011217918752e-04  1.9209101193972854e-05 -1.3015666841300645e-05 2.9215695706714490e-04  2.1574720624624101e-05 -1.7733602568378865e-05 4.0242468644948896e-04  2.3547725298684258e-05 -2.2957575177003591e-05 5.2404307094373371e-04  2.5171300001377266e-05 -2.8608474475161324e-05 6.5505942062133067e-04  2.6480395948381972e-05 -3.4614585007495596e-05 7.9370334903450528e-04  2.7511656828507414e-05 -4.0910764342121625e-05 9.3838749265952087e-04  2.8305324654458608e-05 -4.7438540772044015e-05 1.0877490735274450e-03  2.8899130701257765e-05 -5.4146437628198585e-05 1.2406473625599201e-03  2.9325207502710884e-05 -6.0989745394522102e-05 1.3961226967389528e-03  2.9612246573315375e-05 -6.7930183054988074e-05 1.5533712541026322e-03  2.9787877102804406e-05 -7.4935752039912820e-05 1.7117369233471292e-03  2.9879920987432791e-05 -8.1980658941056218e-05 1.8707117506831282e-03  2.9916210500904078e-05 -8.9045570200362389e-05 2.0299394347492962e-03  2.9923747293603979e-05 -9.6118497123230632e-05 2.1892112862509530e-03  0.0000000000000000e+00 0.0000000000000000e+00 0.0000000000000000e+00  6.3492930056072573e-04 7.7088346521817441e-04 2.9949553611502366e-03  7.3553971430850992e-04 1.5805399790698477e-03 6.4460330841487942e-03  5.9209181252890364e-04 2.3241578361728917e-03 9.4096386904112261e-03  2.5581399678778548e-04 2.7654634434528978e-03 1.1008821655403449e-02  -1.4296028445820924e-04 2.7518668983836821e-03 1.0485947429447940e-02  -3.4941011740387051e-04 2.3773789009441096e-03 8.4706127522800930e-03  -2.3461160778740501e-04 1.9732121622668005e-03 6.8385720383599699e-03  3.1749422401578664e-06 1.8127804624376972e-03 6.8772717920786040e-03  6.1096553739880242e-05 1.8303262632539375e-03 7.6590254283130576e-03  -5.3689284143315898e-05 1.7737927319523836e-03 7.5464982894682770e-03  -1.2406083437744233e-04 1.5839923462928807e-03 6.7286264145597951e-03  -1.0161858219991994e-04 1.3859829472961944e-03 6.1664150446101617e-03  -5.6761768455225161e-05 1.2502832091365085e-03 5.9357160145172318e-03  -2.3828823981182560e-05 1.1714356078204426e-03 5.9350170717253452e-03  -3.2581532207896790e-05 1.1168254555936638e-03 6.0242266849515873e-03  -6.4728981145971035e-05 1.0550457688836359e-03 5.9640297426571051e-03  -8.7676947131619992e-05 1.0406506336311263e-03 5.9529406992161697e-03  -3.0009021528375375e-04 1.2094719564049988e-03 5.7031940067618463e-03  0.0000000000000000e+00 0.0000000000000000e+00 0.0000000000000000e+00  9.1412953822182124e-04 1.2232177581432207e-03 6.3944285304592891e-03  1.1075518770549614e-03 2.6895817899569188e-03 1.3852371076950672e-02  8.9504414139446938e-04 4.0480942033609101e-03 2.0324330806151106e-02  3.9460356790560740e-04 4.9052637786272729e-03 2.3941968019016879e-02  -2.1248095697078999e-04 4.9682692373867413e-03 2.3123474469190285e-02  -5.4060539502970772e-04 4.3577456112227249e-03 1.9018336592865701e-02  -3.7640213009109628e-04 3.6328489344415052e-03 1.5353378884443660e-02  -6.6956429489024952e-06 3.3055947190943199e-03 1.4894738130499591e-02  9.3754962216378688e-05 3.3163860733697354e-03 1.6114178052406791e-02  -8.3602578770635344e-05 3.2341803098505425e-03 1.5772731644142446e-02  -1.9775696421854498e-04 2.9186726925421436e-03 1.3952393176517745e-02  -1.6557368013681974e-04 2.5688333031838192e-03 1.2500549502340414e-02  -1.0062541231831714e-04 2.3198332669324179e-03 1.