<?xml version="1.0"?>
<VTKFile type="UnstructuredGrid"  version="0.1"  >
<UnstructuredGrid>
<Piece  NumberOfPoints="760" NumberOfCells="3024">
<Points>
<DataArray  type="Float64"  NumberOfComponents="3"  format="ascii">0 0 0  0.05555555555555555 0 0  0.1111111111111111 0 0  0.1666666666666667 0 0  0.2222222222222222 0 0  0.2777777777777778 0 0  0.3333333333333333 0 0  0.3888888888888889 0 0  0.4444444444444444 0 0  0.5 0 0  0.5555555555555556 0 0  0.6111111111111112 0 0  0.6666666666666666 0 0  0.7222222222222222 0 0  0.7777777777777778 0 0  0.8333333333333334 0 0  0.8888888888888888 0 0  0.9444444444444444 0 0  1 0 0  0 0.01428571428571429 0  0.05555555555555555 0.01428571428571429 0  0.1111111111111111 0.01428571428571429 0  0.1666666666666667 0.01428571428571429 0  0.2222222222222222 0.01428571428571429 0  0.2777777777777778 0.01428571428571429 0  0.3333333333333333 0.01428571428571429 0  0.3888888888888889 0.01428571428571429 0  0.4444444444444444 0.01428571428571429 0  0.5 0.01428571428571429 0  0.5555555555555556 0.01428571428571429 0  0.6111111111111112 0.01428571428571429 0  0.6666666666666666 0.01428571428571429 0  0.7222222222222222 0.01428571428571429 0  0.7777777777777778 0.01428571428571429 0  0.8333333333333334 0.01428571428571429 0  0.8888888888888888 0.01428571428571429 0  0.9444444444444444 0.01428571428571429 0  1 0.01428571428571429 0  0 0.02857142857142857 0  0.05555555555555555 0.02857142857142857 0  0.1111111111111111 0.02857142857142857 0  0.1666666666666667 0.02857142857142857 0  0.2222222222222222 0.02857142857142857 0  0.2777777777777778 0.02857142857142857 0  0.3333333333333333 0.02857142857142857 0  0.3888888888888889 0.02857142857142857 0  0.4444444444444444 0.02857142857142857 0  0.5 0.02857142857142857 0  0.5555555555555556 0.02857142857142857 0  0.6111111111111112 0.02857142857142857 0  0.6666666666666666 0.02857142857142857 0  0.7222222222222222 0.02857142857142857 0  0.7777777777777778 0.02857142857142857 0  0.8333333333333334 0.02857142857142857 0  0.8888888888888888 0.02857142857142857 0  0.9444444444444444 0.02857142857142857 0  1 0.02857142857142857 0  0 0.04285714285714286 0  0.05555555555555555 0.04285714285714286 0  0.1111111111111111 0.04285714285714286 0  0.1666666666666667 0.04285714285714286 0  0.2222222222222222 0.04285714285714286 0  0.2777777777777778 0.04285714285714286 0  0.3333333333333333 0.04285714285714286 0  0.3888888888888889 0.04285714285714286 0  0.4444444444444444 0.04285714285714286 0  0.5 0.04285714285714286 0  0.5555555555555556 0.04285714285714286 0  0.6111111111111112 0.04285714285714286 0  0.6666666666666666 0.04285714285714286 0  0.7222222222222222 0.04285714285714286 0  0.7777777777777778 0.04285714285714286 0  0.8333333333333334 0.04285714285714286 0  0.8888888888888888 0.04285714285714286 0  0.9444444444444444 0.04285714285714286 0  1 0.04285714285714286 0  0 0.05714285714285715 0  0.05555555555555555 0.05714285714285715 0  0.1111111111111111 0.05714285714285715 0  0.1666666666666667 0.05714285714285715 0  0.2222222222222222 0.05714285714285715 0  0.2777777777777778 0.05714285714285715 0  0.3333333333333333 0.05714285714285715 0  0.3888888888888889 0.05714285714285715 0  0.4444444444444444 0.05714285714285715 0  0.5 0.05714285714285715 0  0.5555555555555556 0.05714285714285715 0  0.6111111111111112 0.05714285714285715 0  0.6666666666666666 0.05714285714285715 0  0.7222222222222222 0.05714285714285715 0  0.7777777777777778 0.05714285714285715 0  0.8333333333333334 0.05714285714285715 0  0.8888888888888888 0.05714285714285715 0  0.9444444444444444 0.05714285714285715 0  1 0.05714285714285715 0  0 0.07142857142857142 0  0.05555555555555555 0.07142857142857142 0  0.1111111111111111 0.07142857142857142 0  0.1666666666666667 0.07142857142857142 0  0.2222222222222222 0.07142857142857142 0  0.2777777777777778 0.07142857142857142 0  0.3333333333333333 0.07142857142857142 0  0.3888888888888889 0.07142857142857142 0  0.4444444444444444 0.07142857142857142 0  0.5 0.07142857142857142 0  0.5555555555555556 0.07142857142857142 0  0.6111111111111112 0.07142857142857142 0  0.6666666666666666 0.07142857142857142 0  0.7222222222222222 0.07142857142857142 0  0.7777777777777778 0.07142857142857142 0  0.8333333333333334 0.07142857142857142 0  0.8888888888888888 0.07142857142857142 0  0.9444444444444444 0.07142857142857142 0  1 0.07142857142857142 0  0 0.08571428571428573 0  0.05555555555555555 0.08571428571428573 0  0.1111111111111111 0.08571428571428573 0  0.1666666666666667 0.08571428571428573 0  0.2222222222222222 0.08571428571428573 0  0.2777777777777778 0.08571428571428573 0  0.3333333333333333 0.08571428571428573 0  0.3888888888888889 0.08571428571428573 0  0.4444444444444444 0.08571428571428573 0  0.5 0.08571428571428573 0  0.5555555555555556 0.08571428571428573 0  0.6111111111111112 0.08571428571428573 0  0.6666666666666666 0.08571428571428573 0  0.7222222222222222 0.08571428571428573 0  0.7777777777777778 0.08571428571428573 0  0.8333333333333334 0.08571428571428573 0  0.8888888888888888 0.08571428571428573 0  0.9444444444444444 0.08571428571428573 0  1 0.08571428571428573 0  0 0.1 0  0.05555555555555555 0.1 0  0.1111111111111111 0.1 0  0.1666666666666667 0.1 0  0.2222222222222222 0.1 0  0.2777777777777778 0.1 0  0.3333333333333333 0.1 0  0.3888888888888889 0.1 0  0.4444444444444444 0.1 0  0.5 0.1 0  0.5555555555555556 0.1 0  0.6111111111111112 0.1 0  0.6666666666666666 0.1 0  0.7222222222222222 0.1 0  0.7777777777777778 0.1 0  0.8333333333333334 0.1 0  0.8888888888888888 0.1 0  0.9444444444444444 0.1 0  1 0.1 0  0 0 0.01  0.05555555555555555 0 0.01  0.1111111111111111 0 0.01  0.1666666666666667 0 0.01  0.2222222222222222 0 0.01  0.2777777777777778 0 0.01  0.3333333333333333 0 0.01  0.3888888888888889 0 0.01  0.4444444444444444 0 0.01  0.5 0 0.01  0.5555555555555556 0 0.01  0.6111111111111112 0 0.01  0.6666666666666666 0 0.01  0.7222222222222222 0 0.01  0.7777777777777778 0 0.01  0.8333333333333334 0 0.01  0.8888888888888888 0 0.01  0.9444444444444444 0 0.01  1 0 0.01  0 0.01428571428571429 0.01  0.05555555555555555 0.01428571428571429 0.01  0.1111111111111111 0.01428571428571429 0.01  0.1666666666666667 0.01428571428571429 0.01  0.2222222222222222 0.01428571428571429 0.01  0.2777777777777778 0.01428571428571429 0.01  0.3333333333333333 0.01428571428571429 0.01  0.3888888888888889 0.01428571428571429 0.01  0.4444444444444444 0.01428571428571429 0.01  0.5 0.01428571428571429 0.01  0.5555555555555556 0.01428571428571429 0.01  0.6111111111111112 0.01428571428571429 0.01  0.6666666666666666 0.01428571428571429 0.01  0.7222222222222222 0.01428571428571429 0.01  0.7777777777777778 0.01428571428571429 0.01  0.8333333333333334 0.01428571428571429 0.01  0.8888888888888888 0.01428571428571429 0.01  0.9444444444444444 0.01428571428571429 0.01  1 0.01428571428571429 0.01  0 0.02857142857142857 0.01  0.05555555555555555 0.02857142857142857 0.01  0.1111111111111111 0.02857142857142857 0.01  0.1666666666666667 0.02857142857142857 0.01  0.2222222222222222 0.02857142857142857 0.01  0.2777777777777778 0.02857142857142857 0.01  0.3333333333333333 0.02857142857142857 0.01  0.3888888888888889 0.02857142857142857 0.01  0.4444444444444444 0.02857142857142857 0.01  0.5 0.02857142857142857 0.01  0.5555555555555556 0.02857142857142857 0.01  0.6111111111111112 0.02857142857142857 0.01  0.6666666666666666 0.02857142857142857 0.01  0.7222222222222222 0.02857142857142857 0.01  0.7777777777777778 0.02857142857142857 0.01  0.8333333333333334 0.02857142857142857 0.01  0.8888888888888888 0.02857142857142857 0.01  0.9444444444444444 0.02857142857142857 0.01  1 0.02857142857142857 0.01  0 0.04285714285714286 0.01  0.05555555555555555 0.04285714285714286 0.01  0.1111111111111111 0.04285714285714286 0.01  0.1666666666666667 0.04285714285714286 0.01  0.2222222222222222 0.04285714285714286 0.01  0.2777777777777778 0.04285714285714286 0.01  0.3333333333333333 0.04285714285714286 0.01  0.3888888888888889 0.04285714285714286 0.01  0.4444444444444444 0.04285714285714286 0.01  0.5 0.04285714285714286 0.01  0.5555555555555556 0.04285714285714286 0.01  0.6111111111111112 0.04285714285714286 0.01  0.6666666666666666 0.04285714285714286 0.01  0.7222222222222222 0.04285714285714286 0.01  0.7777777777777778 0.04285714285714286 0.01  0.8333333333333334 0.04285714285714286 0.01  0.8888888888888888 0.04285714285714286 0.01  0.9444444444444444 0.04285714285714286 0.01  1 0.04285714285714286 0.01  0 0.05714285714285715 0.01  0.05555555555555555 0.05714285714285715 0.01  0.1111111111111111 0.05714285714285715 0.01  0.1666666666666667 0.05714285714285715 0.01  0.2222222222222222 0.05714285714285715 0.01  0.2777777777777778 0.05714285714285715 0.01  0.3333333333333333 0.05714285714285715 0.01  0.3888888888888889 0.05714285714285715 0.01  0.4444444444444444 0.05714285714285715 0.01  0.5 0.05714285714285715 0.01  0.5555555555555556 0.05714285714285715 0.01  0.6111111111111112 0.05714285714285715 0.01  0.6666666666666666 0.05714285714285715 0.01  0.7222222222222222 0.05714285714285715 0.01  0.7777777777777778 0.05714285714285715 0.01  0.8333333333333334 0.05714285714285715 0.01  0.8888888888888888 0.05714285714285715 0.01  0.9444444444444444 0.05714285714285715 0.01  1 0.05714285714285715 0.01  0 0.07142857142857142 0.01  0.05555555555555555 0.07142857142857142 0.01  0.1111111111111111 0.07142857142857142 0.01  0.1666666666666667 0.07142857142857142 0.01  0.2222222222222222 0.07142857142857142 0.01  0.2777777777777778 0.07142857142857142 0.01  0.3333333333333333 0.07142857142857142 0.01  0.3888888888888889 0.07142857142857142 0.01  0.4444444444444444 0.07142857142857142 0.01  0.5 0.07142857142857142 0.01  0.5555555555555556 0.07142857142857142 0.01  0.6111111111111112 0.07142857142857142 0.01  0.6666666666666666 0.07142857142857142 0.01  0.7222222222222222 0.07142857142857142 0.01  0.7777777777777778 0.07142857142857142 0.01  0.8333333333333334 0.07142857142857142 0.01  0.8888888888888888 0.07142857142857142 0.01  
[...]
<PointData  Vectors="f_36"> 
<DataArray  type="Float64"  Name="f_36"  NumberOfComponents="3" format="ascii">0.0000000000000000e+00 0.0000000000000000e+00 0.0000000000000000e+00  -1.0572241052715654e-03 2.1622415629743035e-03 -5.2161266802975984e-03  -1.0015080395107110e-03 3.8784535210333263e-03 -1.0555293839045625e-02  -3.6350157439370612e-04 4.6914839772354989e-03 -1.3775277760568024e-02  5.4107504791197139e-04 4.2135601392738900e-03 -1.3216193809958353e-02  1.3842564426503347e-03 2.4716402913019472e-03 -8.6091834169545623e-03  1.7407243839581193e-03 2.8430250500159644e-05 -1.0356574452020390e-03  1.1686098787079058e-03 -1.9670074609627526e-03 6.2002251763295796e-03  1.5970679405796244e-04 -2.5782371750383646e-03 8.6155813131313375e-03  -5.5088789144412399e-05 -2.4244647367956495e-03 7.1883215710331341e-03  6.0721759985182604e-04 -2.9289325770503411e-03 7.8495232232396270e-03  9.9598691780647809e-04 -4.2488957667505389e-03 1.2228865288954199e-02  7.3766895288945086e-04 -5.4257735723394320e-03 1.6283338829221821e-02  5.0151706346047292e-04 -6.1284963117741419e-03 1.8284269917159326e-02  4.9037965126364326e-04 -6.7160562950440575e-03 2.0053630389110271e-02  4.4021228171407816e-04 -7.2728529307734416e-03 2.1929563837106241e-02  2.9562651604265371e-04 -7.7058720123470330e-03 2.3447856302240448e-02  -7.1328299989775444e-05 -8.0258461243034613e-03 2.4651947696525234e-02  -5.6673811842949929e-04 -8.5530451960393571e-03 2.4786554319504779e-02  0.0000000000000000e+00 0.0000000000000000e+00 0.0000000000000000e+00  -1.0281634817557487e-03 1.8493417740166648e-03 -3.2876621993691880e-03  -9.9501174693235263e-04 3.4612434370764407e-03 -7.0541151529128479e-03  -4.0839119427030657e-04 4.3110722938693117e-03 -9.4951857008338386e-03  4.5163189896554743e-04 3.9908626108145877e-03 -9.3310161187353750e-03  1.2714023782506602e-03 2.4753838972175835e-03 -6.2780599504217282e-03  1.6652719836003547e-03 2.3248824212871518e-04 -9.4616786601066285e-04  1.2087204691372865e-03 -1.6980541941281071e-03 4.4188114052280871e-03  2.3639193554905711e-04 -2.3683671713274211e-03 6.2871047626447451e-03  -8.7048464429327282e-05 -2.2295414814600318e-03 5.0573803745145220e-03  5.0634038068704664e-04 -2.6185352997964242e-03 5.2678806654630397e-03  9.6108912373190128e-04 -3.8046417953555597e-03 8.4213447180738598e-03  7.5232183515084629e-04 -4.9252413909151279e-03 1.1422089868434578e-02  4.8360612659446319e-04 -5.6023343172894070e-03 1.2808901088880885e-02  4.6254968433946279e-04 -6.1496021521329040e-03 1.4035325802735591e-02  4.2880787177613632e-04 -6.6723823200020458e-03 1.5402100368778308e-02  3.1515777586871524e-04 -7.0887920457049390e-03 1.6529792469402456e-02  7.0229489085689355e-05 -7.4210716072004032e-03 1.7529845128063038e-02  -6.0524625811142539e-04 -8.1551093641235445e-03 1.8064630831746434e-02  0.0000000000000000e+00 0.0000000000000000e+00 0.0000000000000000e+00  -6.2661408592438095e-04 1.1391664031240663e-03 -1.4032707211077884e-03  -6.2180819878083886e-04 2.2382853731157692e-03 -3.2075408525492869e-03  -2.6709400950434816e-04 2.8920608713563444e-03 -4.4410690745219699e-03  2.6536347806378020e-04 2.7718208012403565e-03 -4.4401637351757705e-03  7.8018324905678794e-04 1.8168071664405050e-03 -3.0278887598426370e-03  1.0434568561111018e-03 2.9597088744821848e-04 -4.3002320207640045e-04  7.9470423715835418e-04 -1.0960129992632509e-03 2.3280989080636328e-03  1.9487954984719148e-04 -1.6185103663605496e-03 3.3794182686534965e-03  -4.6054689024403746e-05 -1.4858690897695251e-03 2.7498708752912993e-03  3.0432706530157780e-04 -1.6705474956349763e-03 2.7796227754227783e-03  6.1613324208505279e-04 -2.4627927466561936e-03 4.3849148372108624e-03  5.0443460744710748e-04 -3.2550633724470978e-03 5.9705007773690737e-03  3.2287510810043076e-04 -3.7230028961782614e-03 6.6980592525146126e-03  3.0472637155459065e-04 -4.0892733908612670e-03 7.3435589448036841e-03  2.9054789358815393e-04 -4.4497157927474457e-03 8.0888986812258108e-03  2.3005015731869478e-04 -4.7495119212287197e-03 8.7222414453797699e-03  1.5264563560328978e-04 -4.9831712366805664e-03 9.3321046107447767e-03  -7.6340692247189531e-04 -5.9295481679015882e-03 9.9663038228833163e-03  0.0000000000000000e+00 0.0000000000000000e+00 0.0000000000000000e+00  7.4076091099604557e-06 -6.0519553684950422e-07 1.0633393978784057e-05  1.4424737875195938e-05 -1.9406497979938096e-06 4.1067360627195375e-05  2.1019582845458969e-05 -4.0236339477429016e-06 9.0740019521924959e-05  2.7122201626903015e-05 -6.7893515276421515e-06 1.5834883143247985e-04  3.2678797952658987e-05 -1.0183818052756263e-05 2.4242955125902801e-04  3.7646368186736475e-05 -1.4147999417439058e-05 3.4136656378856885e-04  4.2006154328796864e-05 -1.8618876982022497e-05 4.5344372313460248e-04  4.5770712090236058e-05 -2.3531621283873647e-05 5.7693533483808639e-04  4.8971908029355031e-05 -2.8823172137054368e-05 7.1020160520548679e-04  5.1637786655894004e-05 -3.4434415957700165e-05 8.5170866662575239e-04  5.3788045963428322e-05 -4.0309164707868428e-05 9.9997867490701471e-04  5.5451415059766404e-05 -4.6392829841999078e-05 1.1535801256367193e-03  5.6675082911081641e-05 -5.2634176082145451e-05 1.3111904054007588e-03  5.7516981233184558e-05 -5.8988350893199098e-05 1.4716471085557629e-03  5.8040345186915544e-05 -6.5417944268438141e-05 1.6339582248749843e-03  5.8315519358813354e-05 -7.1892980912381996e-05 1.7973175976188627e-03  5.8420276839509832e-05 -7.8391707347635192e-05 1.9611292564969437e-03  5.8439544164715594e-05 -8.4902267881101126e-05 2.1250283496589339e-03  0.0000000000000000e+00 0.0000000000000000e+00 0.0000000000000000e+00  6.9647902898646110e-06 -1.0196162574604684e-06 1.0520985540399833e-05  1.4214833356702716e-05 -2.3356103771376128e-06 4.0907124272163530e-05  2.1038491888365208e-05 -4.3934294392047235e-06 9.0563286869826620e-05  2.7360256166367926e-05 -7.1282391914106943e-06 1.5815871200183725e-04  3.3126281074313971e-05 -1.0488111745593356e-05 2.4222774819306422e-04  3.8290743046253013e-05 -1.4415544623029368e-05 3.4115373688688199e-04  4.2831031326650289e-05 -1.8849892308562351e-05 4.5322029521702341e-04  4.6756606278968406e-05 -2.3728447171051826e-05 5.7670234027385684e-04  5.0099579480854377e-05 -2.8988253511744431e-05 7.0996105478114669e-04  5.2890545217704030e-05 -3.4568834265775073e-05 8.5146288697412662e-04  5.5149944877058462e-05 -4.0413813064690655e-05 9.9972941517703856e-04  5.6904997982000454e-05 -4.6470076746383609e-05 1.1533286173315801e-03  5.8202472418560356e-05 -5.2687521230396618e-05 1.3109378925297490e-03  5.9101694838859324e-05 -5.9021465887740553e-05 1.4713946859335010e-03  5.9667226077790647e-05 -6.5434759871279516e-05 1.6337062956111434e-03  5.9970587801000822e-05 -7.1897925690392157e-05 1.7970656758780794e-03  6.0091156510777630e-05 -7.8389582085282059e-05 1.9608759316419280e-03  6.0115384461401066e-05 -8.4897601903671135e-05 2.1247712481008009e-03  0.0000000000000000e+00 0.0000000000000000e+00 0.0000000000000000e+00  -6.8316435008557977e-04 -1.2553411243670285e-03 -2.0027250122069714e-03  -5.9371394329707050e-04 -2.4477122126932076e-03 -3.9545045400324746e-03  -1.8741221975344783e-04 -3.1911299453906512e-03 -5.0436023937226156e-03  3.5427668499695341e-04 -3.1116466936780113e-03 -4.6884387821062821e-03  8.2973343080046738e-04 -2.1442127686943412e-03 -2.8588805980855484e-03  1.0114659931166070e-03 -5.7567070424036331e-04 -9.0700103723742729e-06  6.8541577752077897e-04 9.3064874731606099e-04 2.6584204056963601e-03  1.1174863800819566e-04 1.6100872227288537e-03 3.4632407816172312e-03  -2.8693664153869651e-05 1.5283967938560666e-03 2.7957891028960974e-03  3.4759406964388203e-04 1.6338580734401465e-03 3.0344151389795028e-03  5.9591013461376247e-04 2.3844784278814887e-03 4.7838090098540455e-03  4.7300389598944084e-04 3.2567536317059434e-03 6.3641707335379350e-03  3.5678984708300453e-04 3.8548258835181086e-03 7.1799930028602745e-03  3.8174848250938190e-04 4.3695392744105555e-03 8.0703171372160654e-03  3.7651820143454992e-04 4.9171809698396497e-03 9.1130930843563319e-03  2.9721862127380435e-04 5.4232916382958955e-03 1.0021793197624803e-02  1.0828648720788264e-04 5.9388850087784871e-03 1.0788671822372715e-02  -5.3530559137687219e-04 6.9111712054036921e-03 1.0890283516651927e-02  0.0000000000000000e+00 0.0000000000000000e+00 0.0000000000000000e+00  -1.0916086771386967e-03 -1.6219313239233563e-03 -3.9209552655560939e-03  -9.8611528601481239e-04 -3.3079576463441790e-03 -7.7884959739986173e-03  -3.4766895908834822e-04 -4.4114581418107082e-03 -1.0037790928526785e-02  5.2033160017001825e-04 -4.4040173155759461e-03 -9.5061803906962665e-03  1.2916187406885596e-03 -3.1574559624152850e-03 -6.0939998678643421e-03  1.6078910244995638e-03 -1.0306672386520214e-03 -6.8800658505091810e-04  1.1189752852942027e-03 1.1020661328715669e-03 4.4508886214871249e-03  1.7951602504678781e-04 2.1764378315441845e-03 6.1602657336503712e-03  -1.0735264358898610e-04 2.1639622842191050e-03 4.9824774510602177e-03  4.8996822967833106e-04 2.2891618212788683e-03 5.2866140905887399e-03  9.3513556039279079e-04 3.2712056677266033e-03 8.4353191924102875e-03  7.4463554379741422e-04 4.4921855301326601e-03 1.1434470633973652e-02  5.3013137471739761e-04 5.3705290910612668e-03 1.3009703544051742e-02  5.7174653723197498e-04 6.1091001848738308e-03 1.4636859142917151e-02  5.7361512869532922e-04 6.8843249829553567e-03 1.6550929187346446e-02  4.3017301930191787e-04 7.6152725282014047e-03 1.8222622982564544e-02  1.2521099320731972e-04 8.3948928913821670e-03 1.9610802136441043e-02  -3.5400137036720164e-04 9.9048057072190863e-03 1.9869585772900440e-02  0.0000000000000000e+00 0.0000000000000000e+00 0.0000000000000000e+00  -1.1219962767143443e-03 -1.5854177296966002e-03 -5.3615457790038342e-03  -1.0705504537449988e-03 -3.4083292050440237e-03 -1.0714752095173762e-02  -4.4331233056819582e-04 -4.6477394436948002e-03 -1.3932456156487459e-02  4.5108390393079509e-04 -4.7357574634235011e-03 -1.3381827527073202e-02  1.2753632139204780e-03 -3.5017095934669492e-03 -8.8584739721025655e-03  1.6704167703476963e-03 -1.2865164422047521e-03 -1.5747292386503501e-03  1.2509644177648794e-03 1.0150206903928795e-03 5.4680844783632065e-03  2.4711791994801700e-04 2.2498369018511197e-03 8.1385741440380913e-03  -1.8076023354861244e-04 2.2967900217518017e-03 6.9078247497089606e-03  4.1707860959794431e-04 2.4083592550801450e-03 7.2941289279201300e-03  9.7801516775294201e-04 3.4096547901213349e-03 1.1355430276637525e-02  8.0650744413966670e-04 4.7074617832771745e-03 1.5471760130699940e-02  5.3049890835731083e-04 5.6643371728019639e-03 1.7798704098731306e-02  5.7212304561082275e-04 6.4631322475673884e-03 2.0065441238271999e-02  5.9374087912421520e-04 7.2984247565393697e-03 2.2685830674491494e-02  4.2540020720083785e-04 8.0992755925183638e-03 2.5013699016473365e-02  1.9769682067113675e-05 8.9380206278586467e-03 2.6992811637989028e-02  -3.8382469103539699e-04 1.0649545894433407e-02 2.7946496458781413e-02  0.0000000000000000e+00 0.0000000000000000e+00 0.0000000000000000e+00  -4.2264852541532076e-04 8.5294550607734651e-04 -5.0424105150505714e-03  -4.5835241509862825e-04 1.6413158587165510e-03 -1.0396106945546197e-02  -2.0642230287797213e-04 2.0446711337147837e-03 -1.3658124093901748e-02  1.8164615417706078e-04 1.8882706030837926e-03 -1.3174300887542288e-02  5.6042707738222352e-04 1.1628984958966184e-03 -8.6551646468590281e-03  7.5555582100794673e-04 8.9158889930908983e-05 -1.1393183385711317e-03  5.6110651784740408e-04 -8.3592663555228394e-04 6.1132728226435959e-03  1.2546424740965417e-04 -1.1439111499662211e-03 8.5739685259958887e-03  -2.2213607873080887e-05 -1.0497035592245470e-03 7.1216941828840018e-03  2.3907037400837356e-04 -1.2236375903817854e-03 7.7023985941878908e-03  4.3892690227833095e-04 -1.8043076352694566e-03 1.2041947378378366e-02  3.5140159162183528e-04 -2.3490803027903179e-03 1.6102107879549413e-02  2.4476398772625658e-04 -2.6630995914121037e-03 1.8093102464870323e-02  2.3837896466259831e-04 -2.9152122915875383e-03 1.9839553730464043e-02  2.0964229889746891e-04 -3.1621096133766422e-03 2.1705669538991900e-02  1.0698884916864309e-04 -3.3612593329937828e-03 2.3220320447093282e-02  -1.6528475996573853e-04 -3.5848737959504394e-03 2.4420901708900773e-02  -5.6556442947724940e-04 -4.1126443440906183e-03 2.4556134624424731e-02  0.0000000000000000e+00 0.0000000000000000e+00 0.0000000000000000e+00  -4.6328799206711623e-04 7.4924591663070748e-04 -3.1627312364724647e-03  -4.9024280501362347e-04 1.4360770398966223e-03 -6.9299030060266907e-03  -2.2735023781838382e-04 1.8096405722849301e-03 -9.3917191668718789e-03  1.7725512208079116e-04 1.6940241537701701e-03 -9.2751159897298038e-03  5.7385665678632918e-04 1.0713374640863875e-03 -6.2847406471734585e-03  7.8573278833119994e-04 1.2871502180933239e-04 -1.0013880271611680e-03  6.0766751311995017e-04 -7.0331814707466731e-04 4.3676339189996430e-03  1.5618217863771916e-04 -1.0095859006565980e-03 6.2619642283004984e-03  -3.2793369263788129e-05 -9.5098946529056222e-04 5.0014122295188399e-03  2.2310371835239127e-04 -1.0988516188957873e-03 5.1401133219493283e-03  4.5732989650024841e-04 -1.5987558142349875e-03 8.2622999572376631e-03  3.8037591614987966e-04 -2.0871850899682035e-03 1.1268859329322102e-02  2.5169163896527155e-04 -2.3812000939584274e-03 1.2641164777375161e-02  2.3811824126489657e-04 -2.6116294530730460e-03 1.3841078390008482e-02  2.1686041024203241e-04 -2.8330695971824759e-03 1.5196941353986221e-02  1.3814143705950395e-04 -3.0091159180344173e-03 1.6319134281935793e-02  -3.9456789738482153e-05 -3.1918197453843756e-03 1.7319601959701992e-02  -5.3094491865032095e-04 -3.7479963773022042e-03 1.7909686582041267e-02  0.0000000000000000e+00 0.0000000000000000e+00 0.0000000000000000e+00  -3.0605660458496529e-04 4.5670775473048361e-04 -1.2539985882961439e-03  -3.2286608555473115e-04 8.8021438129914020e-04 -2.9849164914227100e-03  -1.5115046977352489e-04 1.1269332508699157e-03 -4.1876200716127856e-03  1.1482990513699576e-04 1.0722112451218638e-03 -4.2215677774329356e-03  3.7702234310506950e-04 6.9650873305545920e-04 -2.9046086951734240e-03  5.2035000189158958e-04 1.0891938495009234e-04 -4.2655779152103024e-04  4.1496472935463195e-04 -4.2549386596792696e-04 2.2492194172919608e-03  1.2243672737041105e-04 -6.3730291748744915e-04 3.2710285154542700e-03  -1.5588768445909465e-05 -6.0867707811399603e-04 2.6065014630966762e-03  1.4359660401121540e-04 -6.9437678449846372e-04 2.5677603736878750e-03  3.0820059712809893e-04 -1.0021576949990091e-03 4.1090102027021959e-03  2.6607437024475476e-04 -1.3135969038571922e-03 5.6512086579817251e-03  1.7478065171433626e-04 -1.5062368842731150e-03 6.3320097421324635e-03  1.6202204640549121e-04 -1.6556019156699308e-03 6.9297597091759417e-03  1.5233730589465902e-04 -1.7984800561821033e-03 7.6428174535190189e-03  1.1184433908844219e-04 -1.9147945523553585e-03 8.2536428013882841e-03  5.1124104508892744e-05 -2.0137594988568850e-03 8.8481850079735226e-03  -5.3137846759272668e-04 -2.4884970196089912e-03 9.4912864546385298e-03  0.0000000000000000e+00 0.0000000000000000e+00 0.0000000000000000e+00  3.4894348916221424e-06 -5.6729767663253794e-07 1.0323134882455154e-05  6.9939284843989496e-06 -1.8940680808119169e-06 4.0770426061643456e-05  1.0262333641517523e-05 -3.9602512581511353e-06 9.0461427253766166e-05  1.3288844046924981e-05 -6.7114775786152176e-06 1.5809182022250053e-04  1.6048144250060335e-05 -1.0091748847631511e-05 2.4219618780223115e-04  1.8518594831583974e-05 -1.4041752311093259e-05 3.4115838125411784e-04  2.0689787153707407e-05 -1.8498855511285106e-05 4.5326127547857951e-04  2.2566573363886111e-05 -2.3399194696086514e-05 5.7677804277940644e-04  2.4164223368394071e-05 -2.8680347331971920e-05 7.1006824826167468e-04  2.5497174632784701e-05 -3.4282920506993656e-05 8.5159812001709963e-04  2.6575471607312263e-05 -4.0150220940527077e-05 9.9988995259693569e-04  2.7412647699785076e-05 -4.6227728091654523e-05 1.1535118030524089e-03  2.8031246224529396e-05 -5.2464480420019330e-05 1.3111403846984048e-03  2.8459581904464359e-05 -5.8815466637698492e-05 1.4716128792417256e-03  2.8728639637576280e-05 -6.5242814104813073e-05 1.6339370047759858e-03  2.8872805435260785e-05 -7.1716027687833392e-05 1.7973062795405106e-03  2.8930058966700218e-05 -7.8212856176001531e-05 1.9611243865248220e-03  2.8941207969233139e-05 -8.4720562387416694e-05 2.1250247106808775e-03  0.0000000000000000e+00 0.0000000000000000e+00 0.0000000000000000e+00  3.5295880991921818e-06 -8.6468320421640931e-07 1.0154453154326217e-05  7.2669198606003561e-06 -2.1512400301074656e-06 4.0585204887412177e-05  1.0729274392862922e-05 -4.1987479133583938e-06 9.0261968708266131e-05  1.3937364828412596e-05 -6.9303080874983660e-06 1.5787990310049219e-04  1.6864788610836125e-05 -1.0289001335574994e-05 2.4197338207649195e-04  1.9488528661810401e-05 -1.4216088543543485e-05 3.4092563210517225e-04  2.1796780424113635e-05 -1.8650152394710359e-05 4.5301941516028108e-04  2.3793589629350896e-05 -2.3528536352977605e-05 5.7652841478803777e-04  2.5494639198584691e-05 -2.8789130616125437e-05 7.0981284184375138e-04  2.6915568238134117e-05 -3.4372022328387121e-05 8.5133904707678648e-04  2.8067157083889835e-05 -4.0220355940019068e-05 9.9962892359448845e-04  2.8963125261799828e-05 -4.6280284041561895e-05 1.1532502004084301e-03  2.9626764305385685e-05 -5.2501539822826980e-05 1.3108795135512847e-03  3.0087968492461838e-05 -5.8839357890055479e-05 1.4713537644592623e-03  3.0379460504908401e-05 -6.5256051838506496e-05 1.6336799931873007e-03  3.0537418380459735e-05 -7.1721410233375590e-05 1.7970508454840165e-03  3.0601916797268189e-05 -7.8213343161846058e-05 1.9608691183699459e-03  3.0615885610652620e-05 -8.4718817158018278e-05 2.1247681796319677e-03  0.0000000000000000e+00 0.0000000000000000e+00 0.0000000000000000e+00  -3.4449848544650964e-04 -4.4761480990529657e-04 -1.7882392729630639e-03  -3.2670788010784525e-04 -8.6127483060034456e-04 -3.5314674030127316e-03  -1.3274172738517607e-04 -1.1300867151402675e-03 -4.4683314348902166e-03  1.4311648529959119e-04 -1.1117674091713416e-03 -4.0968645909934716e-03  3.9607834280914366e-04 -7.8023538573203464e-04 -2.4129078475278254e-03  5.1443441180236730e-04 -2.3444701869407118e-04 1.7128325020678031e-04  3.8311774602551565e-04 2.9684504673912348e-04 2.5643794384897830e-03  9.0460368140617123e-05 5.4533224840661552e-04 3.2026735062994443e-03  -2.3175316029227179e-05 5.2366006808727812e-04 2.4845553261966017e-03  1.4969316731405343e-04 5.5550112704958257e-04 2.6834415728313114e-03  3.0239973052527879e-04 8.0819759028233622e-04 4.3251467474973108e-03  2.5623611655053579e-04 1.1103848900719067e-03 5.7559375808552762e-03  1.8663668029580215e-04 1.3228548622315729e-03 6.4345843476105542e-03  1.9646570570361615e-04 1.5039920811929994e-03 7.2102089646730715e-03  1.9564572446743942e-04 1.6906824527606213e-03 8.1475873245390358e-03  1.4473339368093510e-04 1.8614404440247081e-03 8.9536804043087101e-03  5.1290270698470087e-05 2.0681379982561299e-03 9.6076115387489832e-03  -4.1764896542432133e-04 2.4787978464201588e-03 9.3718243062388736e-03  0.0000000000000000e+00 0.0000000000000000e+00 0.0000000000000000e+00  -4.9999152738999580e-04 -7.1136421393262360e-04 -3.7912834586745691e-03  -5.0466941873318182e-04 -1.4725956205625898e-03 -7.6094412209129032e-03  -2.1924952887634645e-04 -1.9869066916501123e-03 -9.8056879547352965e-03  1.9265066461699032e-04 -2.0065909500146567e-03 -9.2677271554994865e-03  5.7471682591132551e-04 -1.4654466609547799e-03 -5.9078872488356488e-03  7.6086927178682878e-04 -5.1741994091121654e-04 -5.9636650543179665e-04  5.7357623950570987e-04 4.5098055254471964e-04 4.4515378571044458e-03  1.2485841102384293e-04 9.5461019018916839e-04 6.0937972090080606e-03  -6.6035131966129485e-05 9.6010856902273127e-04 4.8529064853564978e-03  1.9639518068901988e-04 1.0073071524487804e-03 5.0995772649506188e-03  4.4412756226634514e-04 1.4328119280164885e-03 8.2113514962239269e-03  3.7368269436879436e-04 1.9763906826532280e-03 1.1170239690949570e-02  2.5679862249281384e-04 2.3760219273388748e-03 1.2679573215811245e-