<?xml version="1.0"?>
<VTKFile type="UnstructuredGrid"  version="0.1"  >
<UnstructuredGrid>
<Piece  NumberOfPoints="760" NumberOfCells="3024">
<Points>
<DataArray  type="Float64"  NumberOfComponents="3"  format="ascii">0 0 0  0.05555555555555555 0 0  0.1111111111111111 0 0  0.1666666666666667 0 0  0.2222222222222222 0 0  0.2777777777777778 0 0  0.3333333333333333 0 0  0.3888888888888889 0 0  0.4444444444444444 0 0  0.5 0 0  0.5555555555555556 0 0  0.6111111111111112 0 0  0.6666666666666666 0 0  0.7222222222222222 0 0  0.7777777777777778 0 0  0.8333333333333334 0 0  0.8888888888888888 0 0  0.9444444444444444 0 0  1 0 0  0 0.01428571428571429 0  0.05555555555555555 0.01428571428571429 0  0.1111111111111111 0.01428571428571429 0  0.1666666666666667 0.01428571428571429 0  0.2222222222222222 0.01428571428571429 0  0.2777777777777778 0.01428571428571429 0  0.3333333333333333 0.01428571428571429 0  0.3888888888888889 0.01428571428571429 0  0.4444444444444444 0.01428571428571429 0  0.5 0.01428571428571429 0  0.5555555555555556 0.01428571428571429 0  0.6111111111111112 0.01428571428571429 0  0.6666666666666666 0.01428571428571429 0  0.7222222222222222 0.01428571428571429 0  0.7777777777777778 0.01428571428571429 0  0.8333333333333334 0.01428571428571429 0  0.8888888888888888 0.01428571428571429 0  0.9444444444444444 0.01428571428571429 0  1 0.01428571428571429 0  0 0.02857142857142857 0  0.05555555555555555 0.02857142857142857 0  0.1111111111111111 0.02857142857142857 0  0.1666666666666667 0.02857142857142857 0  0.2222222222222222 0.02857142857142857 0  0.2777777777777778 0.02857142857142857 0  0.3333333333333333 0.02857142857142857 0  0.3888888888888889 0.02857142857142857 0  0.4444444444444444 0.02857142857142857 0  0.5 0.02857142857142857 0  0.5555555555555556 0.02857142857142857 0  0.6111111111111112 0.02857142857142857 0  0.6666666666666666 0.02857142857142857 0  0.7222222222222222 0.02857142857142857 0  0.7777777777777778 0.02857142857142857 0  0.8333333333333334 0.02857142857142857 0  0.8888888888888888 0.02857142857142857 0  0.9444444444444444 0.02857142857142857 0  1 0.02857142857142857 0  0 0.04285714285714286 0  0.05555555555555555 0.04285714285714286 0  0.1111111111111111 0.04285714285714286 0  0.1666666666666667 0.04285714285714286 0  0.2222222222222222 0.04285714285714286 0  0.2777777777777778 0.04285714285714286 0  0.3333333333333333 0.04285714285714286 0  0.3888888888888889 0.04285714285714286 0  0.4444444444444444 0.04285714285714286 0  0.5 0.04285714285714286 0  0.5555555555555556 0.04285714285714286 0  0.6111111111111112 0.04285714285714286 0  0.6666666666666666 0.04285714285714286 0  0.7222222222222222 0.04285714285714286 0  0.7777777777777778 0.04285714285714286 0  0.8333333333333334 0.04285714285714286 0  0.8888888888888888 0.04285714285714286 0  0.9444444444444444 0.04285714285714286 0  1 0.04285714285714286 0  0 0.05714285714285715 0  0.05555555555555555 0.05714285714285715 0  0.1111111111111111 0.05714285714285715 0  0.1666666666666667 0.05714285714285715 0  0.2222222222222222 0.05714285714285715 0  0.2777777777777778 0.05714285714285715 0  0.3333333333333333 0.05714285714285715 0  0.3888888888888889 0.05714285714285715 0  0.4444444444444444 0.05714285714285715 0  0.5 0.05714285714285715 0  0.5555555555555556 0.05714285714285715 0  0.6111111111111112 0.05714285714285715 0  0.6666666666666666 0.05714285714285715 0  0.7222222222222222 0.05714285714285715 0  0.7777777777777778 0.05714285714285715 0  0.8333333333333334 0.05714285714285715 0  0.8888888888888888 0.05714285714285715 0  0.9444444444444444 0.05714285714285715 0  1 0.05714285714285715 0  0 0.07142857142857142 0  0.05555555555555555 0.07142857142857142 0  0.1111111111111111 0.07142857142857142 0  0.1666666666666667 0.07142857142857142 0  0.2222222222222222 0.07142857142857142 0  0.2777777777777778 0.07142857142857142 0  0.3333333333333333 0.07142857142857142 0  0.3888888888888889 0.07142857142857142 0  0.4444444444444444 0.07142857142857142 0  0.5 0.07142857142857142 0  0.5555555555555556 0.07142857142857142 0  0.6111111111111112 0.07142857142857142 0  0.6666666666666666 0.07142857142857142 0  0.7222222222222222 0.07142857142857142 0  0.7777777777777778 0.07142857142857142 0  0.8333333333333334 0.07142857142857142 0  0.8888888888888888 0.07142857142857142 0  0.9444444444444444 0.07142857142857142 0  1 0.07142857142857142 0  0 0.08571428571428573 0  0.05555555555555555 0.08571428571428573 0  0.1111111111111111 0.08571428571428573 0  0.1666666666666667 0.08571428571428573 0  0.2222222222222222 0.08571428571428573 0  0.2777777777777778 0.08571428571428573 0  0.3333333333333333 0.08571428571428573 0  0.3888888888888889 0.08571428571428573 0  0.4444444444444444 0.08571428571428573 0  0.5 0.08571428571428573 0  0.5555555555555556 0.08571428571428573 0  0.6111111111111112 0.08571428571428573 0  0.6666666666666666 0.08571428571428573 0  0.7222222222222222 0.08571428571428573 0  0.7777777777777778 0.08571428571428573 0  0.8333333333333334 0.08571428571428573 0  0.8888888888888888 0.08571428571428573 0  0.9444444444444444 0.08571428571428573 0  1 0.08571428571428573 0  0 0.1 0  0.05555555555555555 0.1 0  0.1111111111111111 0.1 0  0.1666666666666667 0.1 0  0.2222222222222222 0.1 0  0.2777777777777778 0.1 0  0.3333333333333333 0.1 0  0.3888888888888889 0.1 0  0.4444444444444444 0.1 0  0.5 0.1 0  0.5555555555555556 0.1 0  0.6111111111111112 0.1 0  0.6666666666666666 0.1 0  0.7222222222222222 0.1 0  0.7777777777777778 0.1 0  0.8333333333333334 0.1 0  0.8888888888888888 0.1 0  0.9444444444444444 0.1 0  1 0.1 0  0 0 0.01  0.05555555555555555 0 0.01  0.1111111111111111 0 0.01  0.1666666666666667 0 0.01  0.2222222222222222 0 0.01  0.2777777777777778 0 0.01  0.3333333333333333 0 0.01  0.3888888888888889 0 0.01  0.4444444444444444 0 0.01  0.5 0 0.01  0.5555555555555556 0 0.01  0.6111111111111112 0 0.01  0.6666666666666666 0 0.01  0.7222222222222222 0 0.01  0.7777777777777778 0 0.01  0.8333333333333334 0 0.01  0.8888888888888888 0 0.01  0.9444444444444444 0 0.01  1 0 0.01  0 0.01428571428571429 0.01  0.05555555555555555 0.01428571428571429 0.01  0.1111111111111111 0.01428571428571429 0.01  0.1666666666666667 0.01428571428571429 0.01  0.2222222222222222 0.01428571428571429 0.01  0.2777777777777778 0.01428571428571429 0.01  0.3333333333333333 0.01428571428571429 0.01  0.3888888888888889 0.01428571428571429 0.01  0.4444444444444444 0.01428571428571429 0.01  0.5 0.01428571428571429 0.01  0.5555555555555556 0.01428571428571429 0.01  0.6111111111111112 0.01428571428571429 0.01  0.6666666666666666 0.01428571428571429 0.01  0.7222222222222222 0.01428571428571429 0.01  0.7777777777777778 0.01428571428571429 0.01  0.8333333333333334 0.01428571428571429 0.01  0.8888888888888888 0.01428571428571429 0.01  0.9444444444444444 0.01428571428571429 0.01  1 0.01428571428571429 0.01  0 0.02857142857142857 0.01  0.05555555555555555 0.02857142857142857 0.01  0.1111111111111111 0.02857142857142857 0.01  0.1666666666666667 0.02857142857142857 0.01  0.2222222222222222 0.02857142857142857 0.01  0.2777777777777778 0.02857142857142857 0.01  0.3333333333333333 0.02857142857142857 0.01  0.3888888888888889 0.02857142857142857 0.01  0.4444444444444444 0.02857142857142857 0.01  0.5 0.02857142857142857 0.01  0.5555555555555556 0.02857142857142857 0.01  0.6111111111111112 0.02857142857142857 0.01  0.6666666666666666 0.02857142857142857 0.01  0.7222222222222222 0.02857142857142857 0.01  0.7777777777777778 0.02857142857142857 0.01  0.8333333333333334 0.02857142857142857 0.01  0.8888888888888888 0.02857142857142857 0.01  0.9444444444444444 0.02857142857142857 0.01  1 0.02857142857142857 0.01  0 0.04285714285714286 0.01  0.05555555555555555 0.04285714285714286 0.01  0.1111111111111111 0.04285714285714286 0.01  0.1666666666666667 0.04285714285714286 0.01  0.2222222222222222 0.04285714285714286 0.01  0.2777777777777778 0.04285714285714286 0.01  0.3333333333333333 0.04285714285714286 0.01  0.3888888888888889 0.04285714285714286 0.01  0.4444444444444444 0.04285714285714286 0.01  0.5 0.04285714285714286 0.01  0.5555555555555556 0.04285714285714286 0.01  0.6111111111111112 0.04285714285714286 0.01  0.6666666666666666 0.04285714285714286 0.01  0.7222222222222222 0.04285714285714286 0.01  0.7777777777777778 0.04285714285714286 0.01  0.8333333333333334 0.04285714285714286 0.01  0.8888888888888888 0.04285714285714286 0.01  0.9444444444444444 0.04285714285714286 0.01  1 0.04285714285714286 0.01  0 0.05714285714285715 0.01  0.05555555555555555 0.05714285714285715 0.01  0.1111111111111111 0.05714285714285715 0.01  0.1666666666666667 0.05714285714285715 0.01  0.2222222222222222 0.05714285714285715 0.01  0.2777777777777778 0.05714285714285715 0.01  0.3333333333333333 0.05714285714285715 0.01  0.3888888888888889 0.05714285714285715 0.01  0.4444444444444444 0.05714285714285715 0.01  0.5 0.05714285714285715 0.01  0.5555555555555556 0.05714285714285715 0.01  0.6111111111111112 0.05714285714285715 0.01  0.6666666666666666 0.05714285714285715 0.01  0.7222222222222222 0.05714285714285715 0.01  0.7777777777777778 0.05714285714285715 0.01  0.8333333333333334 0.05714285714285715 0.01  0.8888888888888888 0.05714285714285715 0.01  0.9444444444444444 0.05714285714285715 0.01  1 0.05714285714285715 0.01  0 0.07142857142857142 0.01  0.05555555555555555 0.07142857142857142 0.01  0.1111111111111111 0.07142857142857142 0.01  0.1666666666666667 0.07142857142857142 0.01  0.2222222222222222 0.07142857142857142 0.01  0.2777777777777778 0.07142857142857142 0.01  0.3333333333333333 0.07142857142857142 0.01  0.3888888888888889 0.07142857142857142 0.01  0.4444444444444444 0.07142857142857142 0.01  0.5 0.07142857142857142 0.01  0.5555555555555556 0.07142857142857142 0.01  0.6111111111111112 0.07142857142857142 0.01  0.6666666666666666 0.07142857142857142 0.01  0.7222222222222222 0.07142857142857142 0.01  0.7777777777777778 0.07142857142857142 0.01  0.8333333333333334 0.07142857142857142 0.01  0.8888888888888888 0.07142857142857142 0.01  
[...]
<PointData  Vectors="f_36"> 
<DataArray  type="Float64"  Name="f_36"  NumberOfComponents="3" format="ascii">0.0000000000000000e+00 0.0000000000000000e+00 0.0000000000000000e+00  -8.9493592540015475e-04 1.8602151932211534e-03 -4.5623814675446409e-03  -7.6558414663670043e-04 3.2312884831670321e-03 -8.9709693177921629e-03  -8.3502285893706984e-05 3.6457572738649146e-03 -1.1060904555837990e-02  8.1929313223458116e-04 2.7612661695771831e-03 -9.2357780790963094e-03  1.5513612667775250e-03 7.3408870492782730e-04 -3.5623902349952640e-03  1.7297356472660160e-03 -1.7423440696101538e-03 4.2790729678311434e-03  1.0566509921390230e-03 -3.5713594157026677e-03 1.1015488874844480e-02  6.3280709069299740e-05 -3.9994127377261440e-03 1.2817169772990532e-02  -6.6538638583830026e-05 -3.7699891016482602e-03 1.1093714082942028e-02  6.3700321319636337e-04 -4.3028196283752054e-03 1.1945503088616544e-02  9.8145600628467516e-04 -5.6289614876993722e-03 1.6461144836655395e-02  7.2278696047353827e-04 -6.7763613196110987e-03 2.0373148399531606e-02  5.2722027812958600e-04 -7.5042870280971792e-03 2.2487265924998528e-02  5.0828136135727946e-04 -8.1278120593455613e-03 2.4460292676043102e-02  4.3445599410225883e-04 -8.6834328331792804e-03 2.6358958890071428e-02  2.7850012108680534e-04 -9.1072524610155258e-03 2.7886705435765803e-02  -1.3579378515392556e-04 -9.4282173528675173e-03 2.9147005523211252e-02  -7.0993876029525527e-04 -1.0028571362957220e-02 2.9224686063649603e-02  0.0000000000000000e+00 0.0000000000000000e+00 0.0000000000000000e+00  -8.7495570903067842e-04 1.5967975785540337e-03 -2.9006112282852995e-03  -7.7191406801095110e-04 2.8993703052678523e-03 -6.0480863128056532e-03  -1.4300366204980967e-04 3.3847179056601742e-03 -7.7195108280596562e-03  7.2023563432354872e-04 2.6837755785696807e-03 -6.6630119653680060e-03  1.4453897676682946e-03 8.8656598641016088e-04 -2.8129974390722384e-03  1.6692304991197983e-03 -1.4095068315500838e-03 2.7543176961662016e-03  1.1036996297135210e-03 -3.1966755655075119e-03 7.7744416203125010e-03  1.3907084141930040e-04 -3.6930211072186141e-03 9.2012912660716911e-03  -1.0637582819253515e-04 -3.4738305196314366e-03 7.7512179882140040e-03  5.3759575310041610e-04 -3.8855160248969923e-03 8.1216732172032149e-03  9.5632642209248799e-04 -5.0820491590431388e-03 1.1407526920294911e-02  7.3595603991045608e-04 -6.1754296366210359e-03 1.4300602086702955e-02  5.0846121995406081e-04 -6.8727885764225003e-03 1.5775226464430296e-02  4.8594351833746412e-04 -7.4553359718403924e-03 1.7174846064519033e-02  4.2666922569832127e-04 -7.9795109932400791e-03 1.8571226737308998e-02  3.0488705503347625e-04 -8.3880868662775925e-03 1.9717763957598743e-02  3.4173118818503674e-05 -8.7244955939581575e-03 2.0787739489349925e-02  -7.5140486665973573e-04 -9.5663992645133138e-03 2.1352697144306671e-02  0.0000000000000000e+00 0.0000000000000000e+00 0.0000000000000000e+00  -5.3353580137512611e-04 9.9073892845370640e-04 -1.2465933684676809e-03  -4.8352446398794067e-04 1.8921159460920656e-03 -2.7641693057376912e-03  -1.0143951681382327e-04 2.3044962157055416e-03 -3.6327535481731695e-03  4.3527423822890886e-04 1.9226744036790434e-03 -3.1950509316499209e-03  8.9617819713070279e-04 7.6087269959654574e-04 -1.3682495167366463e-03  1.0550888187476504e-03 -8.1297245429282571e-04 1.3776137250739646e-03  7.3470261180528650e-04 -2.1126618348230163e-03 3.9860704903451486e-03  1.3741187052227041e-04 -2.5114458391409253e-03 4.8336551875764432e-03  -5.6198687434757365e-05 -2.3165215681336957e-03 4.1045822275883829e-03  3.2933399477368483e-04 -2.5179851280082363e-03 4.2360026852583605e-03  6.2184491538926968e-04 -3.3235990769182266e-03 5.9386570411846494e-03  4.9909115740948877e-04 -4.0962735165356902e-03 7.4846203417369356e-03  3.4345935814092209e-04 -4.5769110771761790e-03 8.2725811135053919e-03  3.2691528419859749e-04 -4.9710916495985889e-03 9.0317634984319415e-03  2.9619012341286727e-04 -5.3350804637423343e-03 9.8140850202674337e-03  2.3147286108327154e-04 -5.6316142594681779e-03 1.0477428834319446e-02  1.5142563464092793e-04 -5.8681675136318537e-03 1.1149858465833502e-02  -9.2005007653376918e-04 -6.9643946027384681e-03 1.1866033847371721e-02  0.0000000000000000e+00 0.0000000000000000e+00 0.0000000000000000e+00  9.6051024166123295e-06 -7.9248668622850982e-07 1.3907920852543094e-05  1.8598686052229553e-05 -2.5369889684300452e-06 5.3335520866552048e-05  2.6950688872609741e-05 -5.2480420012966172e-06 1.1726879083227615e-04  3.4590596387701362e-05 -8.8339645900201493e-06 2.0377441823554482e-04  4.1475388467012340e-05 -1.3218680374885818e-05 3.1077913596478567e-04  4.7577992528334635e-05 -1.8321621249754815e-05 4.3609639963439585e-04  5.2898329673837404e-05 -2.4059424587986902e-05 5.7749120107645363e-04  5.7466659706827654e-05 -3.0348452939728467e-05 7.3277385071840982e-04  6.1329695918647831e-05 -3.7108412899402519e-05 8.9988649527381732e-04  6.4528323106368961e-05 -4.4264293407752374e-05 1.0769143710755988e-03  6.7095321116020392e-05 -5.1745128312481130e-05 1.2620324689535025e-03  6.9073671291721369e-05 -5.9482759775449400e-05 1.4535010512675129e-03  7.0524519288412337e-05 -6.7413915011707503e-05 1.6497310214679715e-03  7.1519379121769979e-05 -7.5483321178701902e-05 1.8493306473336673e-03  7.2135861581260031e-05 -8.3644769861977825e-05 2.0511174226690299e-03  7.2459188928444726e-05 -9.1861366083981970e-05 2.2541370690261115e-03  7.2582039032927041e-05 -1.0010640515362466e-04 2.4576874353611413e-03  7.2604594714489025e-05 -1.0836519669633889e-04 2.6613399827880124e-03  0.0000000000000000e+00 0.0000000000000000e+00 0.0000000000000000e+00  9.0398192582805471e-06 -1.3252421586640464e-06 1.3761286699255464e-05  1.8345505953367637e-05 -3.0382318763031565e-06 5.3125820134818860e-05  2.7000596252243108e-05 -5.7115009434012200e-06 1.1703628358169226e-04  3.4926861772260056e-05 -9.2538387868086760e-06 2.0352277242885442e-04  4.2081282818264907e-05 -1.3592128246069095e-05 3.1051047200757436e-04  4.8433796264359518e-05 -1.8647672529930867e-05 4.3581181135817263e-04  5.3980766318259908e-05 -2.4339505973673731e-05 5.7719169841752630e-04  5.8750070483074128e-05 -3.0585865179333455e-05 7.3246115109951821e-04  6.2789324305711014e-05 -3.7306329873709943e-05 8.9956322108614823e-04  6.6142367295730036e-05 -4.4424473642798058e-05 1.0765832855800287e-03  6.8842853650685000e-05 -5.1869280341283127e-05 1.2616956302970320e-03  7.0932543261613393e-05 -5.9574121429828319e-05 1.4531600238513898e-03  7.2472709169158137e-05 -6.7476762994175533e-05 1.6493874039025167e-03  7.3536612306494795e-05 -7.5522140292059341e-05 1.8489858165868290e-03  7.4203528911557219e-05 -8.3664379242123698e-05 2.0507720373124055e-03  7.4560358426570234e-05 -9.1867074143645115e-05 2.2537908609374154e-03  7.4701872424206881e-05 -1.0010388415058249e-04 2.4573390912243304e-03  7.4730257117268134e-05 -1.0835971766923498e-04 2.6609870683934906e-03  0.0000000000000000e+00 0.0000000000000000e+00 0.0000000000000000e+00  -5.7653618716174118e-04 -1.0855593916275716e-03 -1.7549713185694140e-03  -4.4822003068174890e-04 -2.0611472769129393e-03 -3.3583927299924432e-03  -1.9440177222654670e-05 -2.5427687162788803e-03 -4.0293446871879253e-03  5.1852828514349126e-04 -2.1850318641640750e-03 -3.2085652568667740e-03  9.2954384288847507e-04 -9.9190514690313957e-04 -9.8374791422476500e-04  1.0061403920144567e-03 6.4658997385460008e-04 1.9547367007590240e-03  6.2172579225456832e-04 2.0591684021632750e-03 4.4167477634047365e-03  6.5393148541461021e-05 2.6022970432314587e-03 5.0126682575188548e-03  -2.0588696962732681e-05 2.4466026724692864e-03 4.2905445604874302e-03  3.7608801251477639e-04 2.5613359616941107e-03 4.6587233709279403e-03  5.9465775726676086e-04 3.3195258826866770e-03 6.4724398708809533e-03  4.7278372261156548e-04 4.1568034489203815e-03 7.9882555944827665e-03  3.8116079711886144e-04 4.7505938811658981e-03 8.8724567314249093e-03  4.0169636299963550e-04 5.2854614182464635e-03 9.8593278795400408e-03  3.8824023300054229e-04 5.8372628097281337e-03 1.0931802282943317e-02  3.0805250848716265e-04 6.3470036107666754e-03 1.1890841405824949e-02  1.0149656270275404e-04 6.8894562519539156e-03 1.2720929300500299e-02  -6.3500789471697904e-04 7.9961096345508055e-03 1.2816253506541194e-02  0.0000000000000000e+00 0.0000000000000000e+00 0.0000000000000000e+00  -9.2536452853694926e-04 -1.4017548636431107e-03 -3.4290899596643074e-03  -7.5616996883903439e-04 -2.7876444861363570e-03 -6.6154146268590942e-03  -8.2743321840987594e-05 -3.5281144006642394e-03 -8.0495121468090874e-03  7.8093706079010537e-04 -3.1315981229949738e-03 -6.6205538493496613e-03  1.4536699898796939e-03 -1.5598931421644472e-03 -2.4486737449136947e-03  1.5996261998235640e-03 6.8705163148900653e-04 3.1396534938047285e-03  1.0092268270612069e-03 2.7095257578060986e-03 7.8819101216059916e-03  9.4136877169140283e-05 3.5977759039408507e-03 9.1543162943134981e-03  -1.0545840858450039e-04 3.4720749091511345e-03 7.8149861629700813e-03  5.3054934447283259e-04 3.5982572432850836e-03 8.3058512501829364e-03  9.2766141626815220e-04 4.5904358765161135e-03 1.1546911127077498e-02  7.3130744685710118e-04 5.7654980612538743e-03 1.4394372910052055e-02  5.5957382323462419e-04 6.6329520466993286e-03 1.6047007041645567e-02  5.9598639779438192e-04 7.3974315853487203e-03 1.7819761691957991e-02  5.8174604165625414e-04 8.1809813923693023e-03 1.9758832662162943e-02  4.3567026956161802e-04 8.9185270399884144e-03 2.1487541868257246e-02  1.0294590126379055e-04 9.7412762464074674e-03 2.2961314261418998e-02  -4.4063486920471929e-04 1.1457313907603734e-02 2.3200711853212284e-02  0.0000000000000000e+00 0.0000000000000000e+00 0.0000000000000000e+00  -9.5834386361168668e-04 -1.3717921797696965e-03 -4.6739789028109741e-03  -8.3872645959276015e-04 -2.8785556270506953e-03 -9.0807416329810996e-03  -1.7397384278467547e-04 -3.7348061363870633e-03 -1.1163650426716841e-02  7.2337317649012354e-04 -3.4076845874491963e-03 -9.3748284496331900e-03  1.4592273562354665e-03 -1.8174875257421224e-03 -3.8030291652558891e-03  1.6773060306559757e-03 5.4396424168541850e-04 3.7718523190716164e-03  1.1369831406952719e-03 2.7434226529065011e-03 1.0316256441802151e-02  1.5087970564942458e-04 3.7834199581922349e-03 1.2385487065280382e-02  -1.8634131654422356e-04 3.7030413931509010e-03 1.0893425632516536e-02  4.6475486218508429e-04 3.8085290054371110e-03 1.1473513140175471e-02  9.7729976726227330e-04 4.8201701066736278e-03 1.5645949158765032e-02  7.8459115927472086e-04 6.0696981935549387e-03 1.9564274997661227e-02  5.5896619067954338e-04 7.0123549362184154e-03 2.1959605755218908e-02  6.0013849270291954e-04 7.8373297723280666e-03 2.4401071768378756e-02  5.9897747970979814e-04 8.6826834532667940e-03 2.7051833019446143e-02  4.2562442364664174e-04 9.4927532170706545e-03 2.9443261691967457e-02  -2.2495649052284236e-05 1.0376246729867662e-02 3.1535712501007569e-02  -4.7939958996881022e-04 1.2319964180834399e-02 3.2546354866153815e-02  0.0000000000000000e+00 0.0000000000000000e+00 0.0000000000000000e+00  -3.5766784354337782e-04 7.3807379164063933e-04 -4.4153934403026972e-03  -3.5700512416393860e-04 1.3791290185344843e-03 -8.8475810279921886e-03  -8.5731993267943246e-05 1.6108143177668767e-03 -1.0991338503550290e-02  3.0474391213584548e-04 1.2741117118808939e-03 -9.2494261400384789e-03  6.4250254919504489e-04 4.1476054245007365e-04 -3.6603161385388001e-03  7.6311400240878710e-04 -6.8303221400949033e-04 4.1345193320912951e-03  5.2097369092980587e-04 -1.5375599054993408e-03 1.0893909451841651e-02  8.4982430963434163e-05 -1.7629527410061878e-03 1.2739939232363511e-02  -3.2816683744958715e-05 -1.6332025584077797e-03 1.0986539830312230e-02  2.4588766277617804e-04 -1.8210021645319993e-03 1.1756843734345858e-02  4.2633908219648575e-04 -2.4077622964525807e-03 1.6237297739902234e-02  3.3428316421663166e-04 -2.9385029248411168e-03 2.0153447725539935e-02  2.4660067877158725e-04 -3.2632915388719429e-03 2.2253583629178286e-02  2.4115539697598635e-04 -3.5351111382386528e-03 2.4205539630257750e-02  1.9966317822552523e-04 -3.7842776205544550e-03 2.6096070984672589e-02  8.2914109668067812e-05 -3.9806708328221736e-03 2.7619673405861345e-02  -2.2985882262926152e-04 -4.2174764762462832e-03 2.8876209175204118e-02  -6.9530855097023347e-04 -4.8276566158137963e-03 2.8954746019127432e-02  0.0000000000000000e+00 0.0000000000000000e+00 0.0000000000000000e+00  -3.9384994311180880e-04 6.4798023610834418e-04 -2.7946722319647675e-03  -3.8452256429038128e-04 1.2066457501551889e-03 -5.9510295316285268e-03  -1.0180655078687446e-04 1.4277396939639580e-03 -7.6537385197701993e-03  3.0578113039726089e-04 1.1509864759964119e-03 -6.6532436069493116e-03  6.6235998583557838e-04 4.0626200952481503e-04 -2.8653866846602470e-03  7.9653957110871595e-04 -5.6331955761221308e-04 2.6600636883393914e-03  5.6474955318825250e-04 -1.3372265628679939e-03 7.6873539779600038e-03  1.1182162977771000e-04 -1.5704828898180673e-03 9.1389317755617479e-03  -4.6016880167098623e-05 -1.4779742980202404e-03 7.6548022428424168e-03  2.3206405212882077e-04 -1.6357828333158444e-03 7.9535892548598421e-03  4.4953173445621208e-04 -2.1416232052002158e-03 1.1213090575387816e-02  3.6439016429779480e-04 -2.6190280943139063e-03 1.4110840099464663e-02  2.5534856533453030e-04 -2.9218556567518002e-03 1.5567210753629634e-02  2.4464165021773629e-04 -3.1693402470764896e-03 1.6942216033807814e-02  2.0990921834638517e-04 -3.3933456012967033e-03 1.8329210705482570e-02  1.2076037744463301e-04 -3.5664026668591861e-03 1.9469602649658063e-02  -8.0155096990639296e-05 -3.7572678029386786e-03 2.0541066587460615e-02  -6.5290501542863185e-04 -4.4013733196406508e-03 2.1171470937229857e-02  0.0000000000000000e+00 0.0000000000000000e+00 0.0000000000000000e+00  -2.6030179569335289e-04 3.9557256780770186e-04 -1.1199966709008011e-03  -2.5313922502389708e-04 7.4094605532557347e-04 -2.5838979391541814e-03  -6.7929187728878388e-05 8.9246542751768515e-04 -3.4450759648814106e-03  2.0053268248884740e-04 7.3569869644127901e-04 -3.0646770243226208e-03  4.3790737074842471e-04 2.8044461439825994e-04 -1.3461183269058612e-03  5.3071032569093580e-04 -3.2816199043375123e-04 1.2794949525032841e-03  3.8853570113076333e-04 -8.2884635056046688e-04 3.8109092861599108e-03  9.4622917645060934e-05 -9.9498024118678118e-04 4.6343484108871662e-03  -2.2897139078464963e-05 -9.4382941669324293e-04 3.8727033322560138e-03  1.5238445851606890e-04 -1.0354999088534578e-03 3.9367385987316133e-03  3.0774590032927717e-04 -1.3482481384478240e-03 5.5789078631645695e-03  2.5894708173620503e-04 -1.6537318080659009e-03 7.0816366808865725e-03  1.8021859648618423e-04 -1.8521839678007387e-03 7.8199096467101506e-03  1.7031397605681513e-04 -2.0128902700530036e-03 8.5317290297238849e-03  1.5189958130435295e-04 -2.1583219111854942e-03 9.2827116628943895e-03  1.0601832243375259e-04 -2.2738001116255372e-03 9.9235705371499387e-03  3.9887115877574598e-05 -2.3749864756210225e-03 1.0581510146182383e-02  -6.4143138141624541e-04 -2.9271279483364132e-03 1.1309816698946122e-02  0.0000000000000000e+00 0.0000000000000000e+00 0.0000000000000000e+00  4.5239862056415098e-06 -7.4138935298707664e-07 1.3506394793030399e-05  9.0195665847026891e-06 -2.4729592341956494e-06 5.2955537343796842e-05  1.3161830947159364e-05 -5.1603275246853859e-06 1.1691635155049492e-04  1.6953089911448311e-05 -8.7256432323216939e-06 2.0345284764348957e-04  2.0373532682382541e-05 -1.3090463570953134e-05 3.1049001578794020e-04  2.3409240798088008e-05 -1.8174069635323037e-05 4.3584058677605190e-04  2.6058974935233436e-05 -2.3893589282693188e-05 5.7726848591373007e-04  2.8336435603940740e-05 -3.0166343293844705e-05 7.3258293234846629e-04  3.0264366102737637e-05 -3.6912566614825394e-05 8.9972552633127856e-04  3.1863621634052586e-05 -4.4056832540058655e-05 1.0767816603396698e-03  3.3150667782790158e-05 -5.1527629094730102e-05 1.2619264538611553e-03  3.4146035006536381e-05 -5.9256900733273798e-05 1.4534196997899663e-03  3.4879193376898712e-05 -6.7181625807433075e-05 1.6496716399611998e-03  3.5385141548437143e-05 -7.5246336992085418e-05 1.8492901331929430e-03  3.5701894021206630e-05 -8.3404366675561458e-05 2.0510923717064616e-03  3.5871153790317635e-05 -9.1618265362632302e-05 2.2541237335063375e-03  3.5938222748607029e-05 -9.9860758776954892e-05 2.4576817069821939e-03  3.5951254212772017e-05 -1.0811611267794314e-04 2.6613357102388715e-03  0.0000000000000000e+00 0.0000000000000000e+00 0.0000000000000000e+00  4.5795912215571151e-06 -1.1250814140685499e-06 1.3285310529254807e-05  9.3801678026120629e-06 -2.8003864557715958e-06 5.2712431210673579e-05  1.3774272310340396e-05 -5.4602465053228892e-06 1.1665379696189609e-04  1.7799008243618231e-05 -8.9977234123883528e-06 2.0317283584811322e-04  2.1433513420968723e-05 -1.3333355620021614e-05 3.1019448307795748e-04  2.4662639365340804e-05 -1.8387133227542343e-05 4.3553091537531998e-04  2.7484063631217313e-05 -2.4077436005817157e-05 5.7694605647025756e-04  2.9911135319929936e-05 -3.0322686064614992e-05 7.3224969692726994e-04  3.1967446875546801e-05 -3.7043306702801317e-05 8.9938401943289890e-04  3.3675406229274230e-05 -4.4163305029681144e-05 1.0764343919378481e-03  3.5052492096598478e-05 -5.1611057312980118e-05 1.2615754270738659e-03  3.6119753507108987e-05 -5.9319216692183435e-05 1.4530665968049087e-03  3.6907841569843006e-05 -6.7225422926633284e-05 1.6493180719815942e-03  3.7453742562481809e-05 -7.5274462406224149e-05 1.8489373784188832e-03  3.7797628160293411e-05 -8.3419892491176837e-05 2.0507410051256785e-03  3.7983476334059434e-05 -9.1624553481764126e-05 2.2537734114888093e-03  3.8059184515713624e-05 -9.9861317996928402e-05 2.4573310949465048e-03  3.8075546389300677e-05 -1.0811406153050335e-04 2.6609834704681805e-03  0.0000000000000000e+00 0.0000000000000000e+00 0.0000000000000000e+00  -2.9220034174748096e-04 -3.8726418694150444e-04 -1.5709565155128870e-03  -2.5326438017800616e-04 -7.2573501694318527e-04 -3.0047132531085979e-03  -4.7417635673635451e-05 -9.0239284059789719e-04 -3.5727708512624900e-03  2.2900093437002033e-04 -7.8608303100413082e-04 -2.7887418508212762e-03  4.5423519500789069e-04 -3.7461683100640370e-04 -7.5343999199664548e-04  5.2021005775409340e-04 1.9681918759082651e-04 1.8997061937136030e-03  3.5446888817204723e-04 6.9560681626059122e-04 4.0946339805294123e-03  6.6267047361538297e-05 8.9523345807212217e-04 4.5447592122122059e-03  -2.1630940709537361e-05 8.4501526882736864e-04 3.7878118079287012e-03  1.6386083058122535e-04 8.7712605989200573e-04 4.1205507114351111e-03  3.0248904294850296e-04 1.1306219286640574e-03 5.8273539177484818e-03  2.5358860131445695e-04 1.4192620589662884e-03 7.1961120861263883e-03  1.9712037464629948e-04 1.6285076412532529e-03 7.9443629199331435e-03  2.0626646988728547e-04 1.8152060373882613e-03 8.8151446632923312e-03  1.9954871969955686e-04 2.0025814317828155e-03 9.7802820395152829e-03  1.4589834775178539e-04 2.1731410125516572e-03 1.0635014389574201e-02  4.3621538663793923e-05 2.3912675302191276e-03 1.1346110757520428e-02  -4.9500371905512061e-04 2.8587279745813043e-03 1.1055104751677274e-02  0.0000000000000000e+00 0.0000000000000000e+00 0.0000000000000000e+00  -4.2604070611706394e-04 -6.1551856039666528e-04 -3.3187014735074874e-03  -3.9697192069799579e-04 -1.2429414177783011e-03 -6.4694735729259149e-03  -9.4334077063132062e-05 -1.5941030202229669e-03 -7.8718879019714239e-03  3.1930751522569204e-04 -1.4379412068310877e-03 -6.4591060822509318e-03  6.6192987514929549e-04 -7.4801542737837064e-04 -2.3561954874839626e-03  7.6929809839154639e-04 2.5746488519152782e-04 3.1298967789903775e-03  5.2798953064877511e-04 1.1781856185350127e-03 7.7793931656020797e-03  8.5267317641443864e-05 1.5973472691906900e-03 8.9880733580290102e-03  -6.6617073444999203e-05 1.5487297028981503e-03 7.5909931066837719e-03  2.1607262587514936e-04 1.5928362561914808e-03 8.0297091132726251e-03  4.4136336328855837e-04 2.0207939474543106e-03 1.1238524166012320e-02  3.6401875117532233e-04 2.5424218872239159e-03 1.4045079396555447e-02  2.6817208853267328e-04 2.9356090060277057e-03 1.5630896596157476e-02  2.85