<?xml version="1.0"?>
<VTKFile type="UnstructuredGrid"  version="0.1"  >
<UnstructuredGrid>
<Piece  NumberOfPoints="760" NumberOfCells="3024">
<Points>
<DataArray  type="Float64"  NumberOfComponents="3"  format="ascii">0 0 0  0.05555555555555555 0 0  0.1111111111111111 0 0  0.1666666666666667 0 0  0.2222222222222222 0 0  0.2777777777777778 0 0  0.3333333333333333 0 0  0.3888888888888889 0 0  0.4444444444444444 0 0  0.5 0 0  0.5555555555555556 0 0  0.6111111111111112 0 0  0.6666666666666666 0 0  0.7222222222222222 0 0  0.7777777777777778 0 0  0.8333333333333334 0 0  0.8888888888888888 0 0  0.9444444444444444 0 0  1 0 0  0 0.01428571428571429 0  0.05555555555555555 0.01428571428571429 0  0.1111111111111111 0.01428571428571429 0  0.1666666666666667 0.01428571428571429 0  0.2222222222222222 0.01428571428571429 0  0.2777777777777778 0.01428571428571429 0  0.3333333333333333 0.01428571428571429 0  0.3888888888888889 0.01428571428571429 0  0.4444444444444444 0.01428571428571429 0  0.5 0.01428571428571429 0  0.5555555555555556 0.01428571428571429 0  0.6111111111111112 0.01428571428571429 0  0.6666666666666666 0.01428571428571429 0  0.7222222222222222 0.01428571428571429 0  0.7777777777777778 0.01428571428571429 0  0.8333333333333334 0.01428571428571429 0  0.8888888888888888 0.01428571428571429 0  0.9444444444444444 0.01428571428571429 0  1 0.01428571428571429 0  0 0.02857142857142857 0  0.05555555555555555 0.02857142857142857 0  0.1111111111111111 0.02857142857142857 0  0.1666666666666667 0.02857142857142857 0  0.2222222222222222 0.02857142857142857 0  0.2777777777777778 0.02857142857142857 0  0.3333333333333333 0.02857142857142857 0  0.3888888888888889 0.02857142857142857 0  0.4444444444444444 0.02857142857142857 0  0.5 0.02857142857142857 0  0.5555555555555556 0.02857142857142857 0  0.6111111111111112 0.02857142857142857 0  0.6666666666666666 0.02857142857142857 0  0.7222222222222222 0.02857142857142857 0  0.7777777777777778 0.02857142857142857 0  0.8333333333333334 0.02857142857142857 0  0.8888888888888888 0.02857142857142857 0  0.9444444444444444 0.02857142857142857 0  1 0.02857142857142857 0  0 0.04285714285714286 0  0.05555555555555555 0.04285714285714286 0  0.1111111111111111 0.04285714285714286 0  0.1666666666666667 0.04285714285714286 0  0.2222222222222222 0.04285714285714286 0  0.2777777777777778 0.04285714285714286 0  0.3333333333333333 0.04285714285714286 0  0.3888888888888889 0.04285714285714286 0  0.4444444444444444 0.04285714285714286 0  0.5 0.04285714285714286 0  0.5555555555555556 0.04285714285714286 0  0.6111111111111112 0.04285714285714286 0  0.6666666666666666 0.04285714285714286 0  0.7222222222222222 0.04285714285714286 0  0.7777777777777778 0.04285714285714286 0  0.8333333333333334 0.04285714285714286 0  0.8888888888888888 0.04285714285714286 0  0.9444444444444444 0.04285714285714286 0  1 0.04285714285714286 0  0 0.05714285714285715 0  0.05555555555555555 0.05714285714285715 0  0.1111111111111111 0.05714285714285715 0  0.1666666666666667 0.05714285714285715 0  0.2222222222222222 0.05714285714285715 0  0.2777777777777778 0.05714285714285715 0  0.3333333333333333 0.05714285714285715 0  0.3888888888888889 0.05714285714285715 0  0.4444444444444444 0.05714285714285715 0  0.5 0.05714285714285715 0  0.5555555555555556 0.05714285714285715 0  0.6111111111111112 0.05714285714285715 0  0.6666666666666666 0.05714285714285715 0  0.7222222222222222 0.05714285714285715 0  0.7777777777777778 0.05714285714285715 0  0.8333333333333334 0.05714285714285715 0  0.8888888888888888 0.05714285714285715 0  0.9444444444444444 0.05714285714285715 0  1 0.05714285714285715 0  0 0.07142857142857142 0  0.05555555555555555 0.07142857142857142 0  0.1111111111111111 0.07142857142857142 0  0.1666666666666667 0.07142857142857142 0  0.2222222222222222 0.07142857142857142 0  0.2777777777777778 0.07142857142857142 0  0.3333333333333333 0.07142857142857142 0  0.3888888888888889 0.07142857142857142 0  0.4444444444444444 0.07142857142857142 0  0.5 0.07142857142857142 0  0.5555555555555556 0.07142857142857142 0  0.6111111111111112 0.07142857142857142 0  0.6666666666666666 0.07142857142857142 0  0.7222222222222222 0.07142857142857142 0  0.7777777777777778 0.07142857142857142 0  0.8333333333333334 0.07142857142857142 0  0.8888888888888888 0.07142857142857142 0  0.9444444444444444 0.07142857142857142 0  1 0.07142857142857142 0  0 0.08571428571428573 0  0.05555555555555555 0.08571428571428573 0  0.1111111111111111 0.08571428571428573 0  0.1666666666666667 0.08571428571428573 0  0.2222222222222222 0.08571428571428573 0  0.2777777777777778 0.08571428571428573 0  0.3333333333333333 0.08571428571428573 0  0.3888888888888889 0.08571428571428573 0  0.4444444444444444 0.08571428571428573 0  0.5 0.08571428571428573 0  0.5555555555555556 0.08571428571428573 0  0.6111111111111112 0.08571428571428573 0  0.6666666666666666 0.08571428571428573 0  0.7222222222222222 0.08571428571428573 0  0.7777777777777778 0.08571428571428573 0  0.8333333333333334 0.08571428571428573 0  0.8888888888888888 0.08571428571428573 0  0.9444444444444444 0.08571428571428573 0  1 0.08571428571428573 0  0 0.1 0  0.05555555555555555 0.1 0  0.1111111111111111 0.1 0  0.1666666666666667 0.1 0  0.2222222222222222 0.1 0  0.2777777777777778 0.1 0  0.3333333333333333 0.1 0  0.3888888888888889 0.1 0  0.4444444444444444 0.1 0  0.5 0.1 0  0.5555555555555556 0.1 0  0.6111111111111112 0.1 0  0.6666666666666666 0.1 0  0.7222222222222222 0.1 0  0.7777777777777778 0.1 0  0.8333333333333334 0.1 0  0.8888888888888888 0.1 0  0.9444444444444444 0.1 0  1 0.1 0  0 0 0.01  0.05555555555555555 0 0.01  0.1111111111111111 0 0.01  0.1666666666666667 0 0.01  0.2222222222222222 0 0.01  0.2777777777777778 0 0.01  0.3333333333333333 0 0.01  0.3888888888888889 0 0.01  0.4444444444444444 0 0.01  0.5 0 0.01  0.5555555555555556 0 0.01  0.6111111111111112 0 0.01  0.6666666666666666 0 0.01  0.7222222222222222 0 0.01  0.7777777777777778 0 0.01  0.8333333333333334 0 0.01  0.8888888888888888 0 0.01  0.9444444444444444 0 0.01  1 0 0.01  0 0.01428571428571429 0.01  0.05555555555555555 0.01428571428571429 0.01  0.1111111111111111 0.01428571428571429 0.01  0.1666666666666667 0.01428571428571429 0.01  0.2222222222222222 0.01428571428571429 0.01  0.2777777777777778 0.01428571428571429 0.01  0.3333333333333333 0.01428571428571429 0.01  0.3888888888888889 0.01428571428571429 0.01  0.4444444444444444 0.01428571428571429 0.01  0.5 0.01428571428571429 0.01  0.5555555555555556 0.01428571428571429 0.01  0.6111111111111112 0.01428571428571429 0.01  0.6666666666666666 0.01428571428571429 0.01  0.7222222222222222 0.01428571428571429 0.01  0.7777777777777778 0.01428571428571429 0.01  0.8333333333333334 0.01428571428571429 0.01  0.8888888888888888 0.01428571428571429 0.01  0.9444444444444444 0.01428571428571429 0.01  1 0.01428571428571429 0.01  0 0.02857142857142857 0.01  0.05555555555555555 0.02857142857142857 0.01  0.1111111111111111 0.02857142857142857 0.01  0.1666666666666667 0.02857142857142857 0.01  0.2222222222222222 0.02857142857142857 0.01  0.2777777777777778 0.02857142857142857 0.01  0.3333333333333333 0.02857142857142857 0.01  0.3888888888888889 0.02857142857142857 0.01  0.4444444444444444 0.02857142857142857 0.01  0.5 0.02857142857142857 0.01  0.5555555555555556 0.02857142857142857 0.01  0.6111111111111112 0.02857142857142857 0.01  0.6666666666666666 0.02857142857142857 0.01  0.7222222222222222 0.02857142857142857 0.01  0.7777777777777778 0.02857142857142857 0.01  0.8333333333333334 0.02857142857142857 0.01  0.8888888888888888 0.02857142857142857 0.01  0.9444444444444444 0.02857142857142857 0.01  1 0.02857142857142857 0.01  0 0.04285714285714286 0.01  0.05555555555555555 0.04285714285714286 0.01  0.1111111111111111 0.04285714285714286 0.01  0.1666666666666667 0.04285714285714286 0.01  0.2222222222222222 0.04285714285714286 0.01  0.2777777777777778 0.04285714285714286 0.01  0.3333333333333333 0.04285714285714286 0.01  0.3888888888888889 0.04285714285714286 0.01  0.4444444444444444 0.04285714285714286 0.01  0.5 0.04285714285714286 0.01  0.5555555555555556 0.04285714285714286 0.01  0.6111111111111112 0.04285714285714286 0.01  0.6666666666666666 0.04285714285714286 0.01  0.7222222222222222 0.04285714285714286 0.01  0.7777777777777778 0.04285714285714286 0.01  0.8333333333333334 0.04285714285714286 0.01  0.8888888888888888 0.04285714285714286 0.01  0.9444444444444444 0.04285714285714286 0.01  1 0.04285714285714286 0.01  0 0.05714285714285715 0.01  0.05555555555555555 0.05714285714285715 0.01  0.1111111111111111 0.05714285714285715 0.01  0.1666666666666667 0.05714285714285715 0.01  0.2222222222222222 0.05714285714285715 0.01  0.2777777777777778 0.05714285714285715 0.01  0.3333333333333333 0.05714285714285715 0.01  0.3888888888888889 0.05714285714285715 0.01  0.4444444444444444 0.05714285714285715 0.01  0.5 0.05714285714285715 0.01  0.5555555555555556 0.05714285714285715 0.01  0.6111111111111112 0.05714285714285715 0.01  0.6666666666666666 0.05714285714285715 0.01  0.7222222222222222 0.05714285714285715 0.01  0.7777777777777778 0.05714285714285715 0.01  0.8333333333333334 0.05714285714285715 0.01  0.8888888888888888 0.05714285714285715 0.01  0.9444444444444444 0.05714285714285715 0.01  1 0.05714285714285715 0.01  0 0.07142857142857142 0.01  0.05555555555555555 0.07142857142857142 0.01  0.1111111111111111 0.07142857142857142 0.01  0.1666666666666667 0.07142857142857142 0.01  0.2222222222222222 0.07142857142857142 0.01  0.2777777777777778 0.07142857142857142 0.01  0.3333333333333333 0.07142857142857142 0.01  0.3888888888888889 0.07142857142857142 0.01  0.4444444444444444 0.07142857142857142 0.01  0.5 0.07142857142857142 0.01  0.5555555555555556 0.07142857142857142 0.01  0.6111111111111112 0.07142857142857142 0.01  0.6666666666666666 0.07142857142857142 0.01  0.7222222222222222 0.07142857142857142 0.01  0.7777777777777778 0.07142857142857142 0.01  0.8333333333333334 0.07142857142857142 0.01  0.8888888888888888 0.07142857142857142 0.01  
[...]
<PointData  Vectors="f_36"> 
<DataArray  type="Float64"  Name="f_36"  NumberOfComponents="3" format="ascii">0.0000000000000000e+00 0.0000000000000000e+00 0.0000000000000000e+00  -1.3281748522618619e-03 3.0994120000694819e-03 -8.5825830828129730e-03  -2.1548733358576111e-04 4.3503594898081427e-03 -1.3922330207122798e-02  1.4787732155436607e-03 3.0820297796468965e-03 -1.0898291912871420e-02  1.6919839620305190e-03 6.7313760645904810e-04 -1.9503261196874436e-03  5.6136888202907556e-04 -5.4702944736803127e-04 2.6881127200137920e-03  4.0844417057115938e-05 -6.2646659262870739e-04 2.0403892991115126e-03  2.1314429219888983e-04 -8.7332545365040011e-04 2.6451852978200386e-03  2.7018532238270781e-04 -1.2946646859413385e-03 4.1265911324758157e-03  2.5717168898920016e-04 -1.6603523227260097e-03 5.1543573082140056e-03  3.1769197866307939e-04 -2.0657146539664706e-03 6.3379552257157110e-03  2.7481962089914534e-04 -2.4888341092648026e-03 7.8117493941884412e-03  2.0468342310512146e-04 -2.8279048080693254e-03 8.5983500328542829e-03  4.8800701043874968e-04 -3.3814228148941017e-03 9.7026444039143810e-03  4.8423400957452330e-04 -4.2490265592708297e-03 1.3135334848556205e-02  -8.5083524932820165e-05 -4.6289213502899752e-03 1.4910293443645459e-02  -4.0931856204713533e-04 -4.4400512088586079e-03 1.4087306794540587e-02  -5.5249302801958886e-04 -4.2955823210944774e-03 1.3531214463474450e-02  -7.9198618577439278e-04 -4.5066117324489034e-03 1.2965388502990087e-02  0.0000000000000000e+00 0.0000000000000000e+00 0.0000000000000000e+00  -1.3614013529903496e-03 2.7182051864184809e-03 -5.7698437454355702e-03  -3.8237701502982183e-04 4.0196923978868988e-03 -9.9272509397284828e-03  1.2733587418895514e-03 3.0127926036998967e-03 -8.0696558002123532e-03  1.6891946700459076e-03 7.7911528409421347e-04 -1.3985942950867280e-03  6.4735063735722645e-04 -4.6864956007530446e-04 2.1773751045877235e-03  1.5090684170975116e-05 -5.8402444892132334e-04 1.5082384292619767e-03  1.8571333398748950e-04 -7.9191045533591898e-04 1.8425072368939645e-03  2.7201123577101790e-04 -1.1799993403902365e-03 2.9433986637908763e-03  2.4671229156259899e-04 -1.5196960669501664e-03 3.6584626800212337e-03  2.9726661852714722e-04 -1.8903211100313459e-03 4.4729275108331551e-03  2.7990353000219553e-04 -2.2821481861881074e-03 5.5524594126871987e-03  1.9966300040343818e-04 -2.5881933436450177e-03 6.0740578906301702e-03  4.2114419415469604e-04 -3.0728126334775042e-03 6.6897391904978017e-03  5.0891911772144580e-04 -3.8858962687672227e-03 9.2584480162624348e-03  4.3003061861549481e-06 -4.2957983816173228e-03 1.0711090163009316e-02  -3.4822458439136094e-04 -4.1447110522197387e-03 1.0095454662579620e-02  -4.1906629429832741e-04 -4.0011184637595079e-03 9.7331079900598305e-03  -7.5574873355056490e-04 -4.3108413889012846e-03 9.5055048570948670e-03  0.0000000000000000e+00 0.0000000000000000e+00 0.0000000000000000e+00  -8.5217022071412598e-04 1.7654161620902378e-03 -2.6299265579622041e-03  -2.9298457713698673e-04 2.7615262799326450e-03 -4.8182018706207554e-03  7.3867177227631580e-04 2.1831952592920372e-03 -4.0707345556115276e-03  1.0735733925970328e-03 6.0466624151882177e-04 -6.7706948054165007e-04  4.5261080623810296e-04 -3.4453903837494026e-04 1.2435846421939209e-03  1.2043652346686067e-05 -4.1769619936817540e-04 8.5625350269829669e-04  1.1557658504926598e-04 -5.2995782949709716e-04 9.9481505595835104e-04  1.8328563304624424e-04 -7.9441402049416703e-04 1.5857949449034096e-03  1.6461986143248225e-04 -1.0233857679453162e-03 1.9628635704080576e-03  1.9232253148159613e-04 -1.2697739357536012e-03 2.3814993061338323e-03  1.8986757242590366e-04 -1.5376450016550101e-03 2.9611781136999302e-03  1.3931221922899121e-04 -1.7288835760335785e-03 3.2447583240070069e-03  2.5689671516019468e-04 -2.0258687147031271e-03 3.4938656458791172e-03  3.4213534545048232e-04 -2.6060345629791491e-03 4.8334686295999421e-03  4.9301660800152601e-05 -2.9381431685620912e-03 5.6838260648854229e-03  -1.8543179312327442e-04 -2.8436557598561273e-03 5.4139134311177867e-03  -1.8526401016812652e-04 -2.7209899937268266e-03 5.2871743026136220e-03  -6.6528374261358122e-04 -3.1542395633905609e-03 5.3608728799306405e-03  0.0000000000000000e+00 0.0000000000000000e+00 0.0000000000000000e+00  4.6783784347059836e-06 -4.1189694879390182e-07 6.7187647464144725e-06  9.1089817664741560e-06 -1.3441683854755859e-06 2.5988363891874145e-05  1.3241676816705744e-05 -2.8049023378032019e-06 5.7420164985183856e-05  1.7007446328623483e-05 -4.7463027382764819e-06 1.0004592482905440e-04  2.0382444678360173e-05 -7.1226677371311654e-06 1.5275103478796603e-04  2.3376652729796914e-05 -9.8852310810055076e-06 2.1442728254806651e-04  2.6003296869532143e-05 -1.2987915025413713e-05 2.8402983535894715e-04  2.8270048402890656e-05 -1.6386860953782915e-05 3.6053198424929110e-04  3.0188179709982209e-05 -2.0038908733347184e-05 4.4292737280096205e-04  3.1773691443060084e-05 -2.3902539963005185e-05 5.3025181677371943e-04  3.3045846560764001e-05 -2.7938606539695980e-05 6.2159030987523484e-04  3.4028896080045723e-05 -3.2110704130833321e-05 7.1608692034638244e-04  3.4750815245696937e-05 -3.6385963516361672e-05 8.1296397857295454e-04  3.5239992970687797e-05 -4.0735506022639130e-05 9.1152452882255870e-04  3.5533279875626052e-05 -4.5133777654139308e-05 1.0111474580307084e-03  3.5680744027526212e-05 -4.9559388227561153e-05 1.1113396472678713e-03  3.5734548235139781e-05 -5.3998077141717141e-05 1.2117670747924941e-03  3.5743835504387206e-05 -5.8443388688139159e-05 1.3122367344000885e-03  0.0000000000000000e+00 0.0000000000000000e+00 0.0000000000000000e+00  4.4138056822700816e-06 -6.7503361430611915e-07 6.6484998291155921e-06  9.0076931779599038e-06 -1.5940235617215729e-06 2.5888807046728715e-05  1.3303479706382942e-05 -3.0350559175414794e-06 5.7310702477656630e-05  1.7224956824746580e-05 -4.9524342561831310e-06 9.9926905514615417e-05  2.0742959318020084e-05 -7.3052250438751861e-06 1.5262214822516903e-04  2.3865921205905804e-05 -1.0045881527742990e-05 2.1428937461732996e-04  2.6609143790255912e-05 -1.3127211947472791e-05 2.8388447513521766e-04  2.8980536362626995e-05 -1.6505235864112802e-05 3.6038041761427757e-04  3.0990970843373772e-05 -2.0137249892713920e-05 4.4277073173322094e-04  3.2656720701288016e-05 -2.3981911587134580e-05 5.3009122599762546e-04  3.3997339704938766e-05 -2.8000310051779718e-05 6.2142678357952799e-04  3.5037258672667206e-05 -3.2156396973045936e-05 7.1592137901547667e-04  3.5805398752695346e-05 -3.6417254336885198e-05 8.1279728176783853e-04  3.6331119869483563e-05 -4.0754065729045318e-05 9.1135731991270788e-04  3.6650417172590150e-05 -4.5142448708535371e-05 1.0109800199288917e-03  3.6813836373498272e-05 -4.9561598074555038e-05 1.1111719992398543e-03  3.6876033039111652e-05 -5.3996744563896319e-05 1.2115987238407028e-03  3.6887797556851807e-05 -5.8440810576236275e-05 1.3120664166167491e-03  0.0000000000000000e+00 0.0000000000000000e+00 0.0000000000000000e+00  -8.4303260691496399e-04 -1.8307219885016319e-03 -3.3217448041183073e-03  -1.3788970889934443e-04 -2.9272215118984722e-03 -5.2099369460822361e-03  8.5233887746468328e-04 -2.4769879327863347e-03 -3.8295049077180193e-03  9.7151899126486023e-04 -8.6498932732576473e-04 -2.2773729806350117e-04  3.1026725883192473e-04 2.3976871965952158e-04 1.3279635748527654e-03  2.9134523996834464e-05 3.8352541667293879e-04 8.2155460003883215e-04  1.5623144699078862e-04 4.8902097712291649e-04 1.1004051355138029e-03  1.9148893110532483e-04 7.6176588264901580e-04 1.7063832067866417e-03  1.8369092513153363e-04 1.0078357994946618e-03 2.1031623297474871e-03  2.2236023835440593e-04 1.2601657435137885e-03 2.5793012585664690e-03  1.9973988793131045e-04 1.5439330144218042e-03 3.1890931990632915e-03  1.4189248759142697e-04 1.7673819317110663e-03 3.5126253200442837e-03  3.0087650974873687e-04 2.0531945591939042e-03 3.8318709781103690e-03  3.8733708437835253e-04 2.6673349410032861e-03 5.1903044745009539e-03  1.3620697733352307e-04 3.1731648016619382e-03 6.1356335895185170e-03  -5.9714757700065516e-05 3.2639877601801197e-03 6.0892155802512969e-03  -1.4867222958052590e-04 3.3246070955611699e-03 6.1571287476353230e-03  -4.8103658476369846e-04 3.7703274020304722e-03 5.9412809154181425e-03  0.0000000000000000e+00 0.0000000000000000e+00 0.0000000000000000e+00  -1.3702887157756030e-03 -2.3551191532358044e-03 -6.3309228156154590e-03  -3.0220365763861909e-04 -3.9957213785298575e-03 -1.0089186627883809e-02  1.3234161818703482e-03 -3.5801035766876679e-03 -7.7713452921779527e-03  1.6171017272301491e-03 -1.4653954602206851e-03 -1.0773412774056777e-03  5.3328600031918121e-04 1.5454763152048358e-04 2.1450316244939643e-03  4.4450858767361524e-07 4.7063744555772829e-04 1.3744004452750048e-03  2.2451102001494003e-04 6.3168510293848943e-04 1.8273338928756510e-03  2.9655102987366185e-04 1.0064119379163789e-03 2.9359433613212445e-03  2.7237514113009908e-04 1.3560228180331596e-03 3.6676976995399144e-03  3.3243872193861312e-04 1.7072601520272341e-03 4.5145025755092810e-03  3.0860396962389931e-04 2.1028670857872302e-03 5.6029578556312538e-03  2.0358353946240459e-04 2.4306802418520403e-03 6.2279754380207691e-03  4.3000438864194111e-04 2.8326265933238436e-03 6.8263192559618472e-03  6.1016518541235308e-04 3.6705049324320524e-03 9.3047692945417270e-03  2.1298907035544520e-04 4.4048184396506826e-03 1.1117946614629434e-02  -1.5460319750436083e-04 4.5806209881089806e-03 1.1022186370331926e-02  -2.9774825719822856e-04 4.7063206087160489e-03 1.1047777152735956e-02  -5.3737552061102931e-04 5.4115374465170882e-03 1.0675851726222568e-02  0.0000000000000000e+00 0.0000000000000000e+00 0.0000000000000000e+00  -1.4917628163207922e-03 -2.3233842674382946e-03 -8.4307473331785808e-03  -4.9162066494301885e-04 -4.1864526129146186e-03 -1.3641561797587616e-02  1.2715317523249309e-03 -3.9060258158109418e-03 -1.0962941605224463e-02  1.8057992471593855e-03 -1.7337689115986838e-03 -2.3110469469846320e-03  6.6014232144287932e-04 4.4045664016048651e-05 2.3841288280060783e-03  -6.2071764666317945e-05 4.4816792513449589e-04 1.7909616454378212e-03  2.0452200598746042e-04 6.3287802749519343e-04 2.3791539524387144e-03  3.1865120063099525e-04 1.0287636841437259e-03 3.8549268523970243e-03  2.7488410884249056e-04 1.4023307458367422e-03 4.8924208006119411e-03  3.3462287209149366e-04 1.7755917095072448e-03 6.0430176862282812e-03  3.3255578722343190e-04 2.1995128125608752e-03 7.4895294563646899e-03  2.0064331580199574e-04 2.5521396244222701e-03 8.4245850230879795e-03  3.7722292253098468e-04 2.9656947052515308e-03 9.3306984504108997e-03  6.4901309211007905e-04 3.8476349062380949e-03 1.2562952619587221e-02  2.6686403525666170e-04 4.6576030079065163e-03 1.5082353635108412e-02  -2.0531230081676440e-04 4.8827909710141429e-03 1.5106644484779700e-02  -4.0864459252313261e-04 5.0292043213570848e-03 1.5150754199420406e-02  -6.2118181230855457e-04 5.8309835163222199e-03 1.4972376862613289e-02  0.0000000000000000e+00 0.0000000000000000e+00 0.0000000000000000e+00  -5.2349566254307998e-04 1.2682462688500969e-03 -8.3658702660790538e-03  -1.3948259099573978e-04 1.9465172271308602e-03 -1.3844604080623508e-02  6.2805099717934431e-04 1.4629407966934458e-03 -1.0954667539730803e-02  8.2408704340069150e-04 3.6060083834627498e-04 -2.0152528513884297e-03  3.4114903542382746e-04 -2.4747098577596613e-04 2.6912687281467926e-03  2.4439401826363908e-05 -2.7316509478527969e-04 2.0316561010411097e-03  6.5038618899246342e-05 -3.5585921423096178e-04 2.5921948706560055e-03  1.0947171245147105e-04 -5.4383369699335298e-04 4.0678408784606303e-03  1.0770388416431663e-04 -7.0585076127628816e-04 5.0888062740029882e-03  1.3457833994092838e-04 -8.7947941604110485e-04 6.2556077813262605e-03  1.2962223389959856e-04 -1.0684531069611218e-03 7.7245583717249532e-03  7.9089822246712938e-05 -1.2173666325633501e-03 8.5025050278931952e-03  1.6189376159299061e-04 -1.4356176205773579e-03 9.5646239736136597e-03  1.5620273046773947e-04 -1.8195276065755299e-03 1.2985843739099601e-02  -1.1257218982899790e-04 -2.0259918955545506e-03 1.4794606827979421e-02  -3.0478711462547886e-04 -1.9531232096325027e-03 1.3977506049951455e-02  -4.5049934904695750e-04 -1.9373306859457029e-03 1.3411180046740776e-02  -6.6671544057520123e-04 -2.2086185637881571e-03 1.2844884743778899e-02  0.0000000000000000e+00 0.0000000000000000e+00 0.0000000000000000e+00  -6.0111676499783890e-04 1.1111613401962967e-03 -5.6104789901934345e-03  -2.1223350026689276e-04 1.7061221403592384e-03 -9.8615991580173843e-03  5.9179454817429782e-04 1.3237434673102535e-03 -8.0963338589873871e-03  8.6204732441970563e-04 3.7626181035347765e-04 -1.4221025048764913e-03  3.8669812735379119e-04 -1.8516269236647877e-04 2.2113232114845450e-03  1.9449840809748316e-05 -2.3987222698925581e-04 1.5186410885290832e-03  6.2928610290245102e-05 -3.1779226546403434e-04 1.8047341502394620e-03  1.2031430183084111e-04 -4.8382860588392843e-04 2.9015430953286902e-03  1.1444710063746392e-04 -6.3057495332642286e-04 3.6113445041174577e-03  1.3701041279932764e-04 -7.8654571961563849e-04 4.4094899646037562e-03  1.3930586243635033e-04 -9.5465168290775687e-04 5.4829990351925725e-03  9.0222916059893757e-05 -1.0904643312303335e-03 5.9978484867218712e-03  1.5984078735091305e-04 -1.2847175757723756e-03 6.5763721576370532e-03  1.9021383694367035e-04 -1.6184922061225026e-03 9.1331722530191856e-03  -6.0283478640728091e-05 -1.8113678039072740e-03 1.0614580758350084e-02  -2.6123652096883250e-04 -1.7579067740692783e-03 9.9971770979303126e-03  -3.4563700942799483e-04 -1.7295551601459564e-03 9.6232190611573107e-03  -6.1246015096769928e-04 -2.0167772530282602e-03 9.4240730890904137e-03  0.0000000000000000e+00 0.0000000000000000e+00 0.0000000000000000e+00  -4.0692974729683161e-04 6.8634506664186487e-04 -2.4375898342521652e-03  -1.6369139530605044e-04 1.0616531276234184e-03 -4.6216531193766647e-03  3.6186785932392233e-04 8.4762763839057694e-04 -3.9488967939741403e-03  5.6762002805723212e-04 2.5983866424918818e-04 -6.2405179827810739e-04  2.7318164176293218e-04 -1.0809564833455296e-04 1.2768092802319430e-03  1.6502307266897156e-05 -1.5542557681062598e-04 8.4927688552498498e-04  4.2160914739425045e-05 -2.0657635876446368e-04 9.3848713227275959e-04  8.5736512388931638e-05 -3.1131180753635494e-04 1.5105732423765232e-03  8.1244830078619159e-05 -4.0496448055843463e-04 1.8685630413930649e-03  9.3392474357026372e-05 -5.0446025143397898e-04 2.2592317374381188e-03  9.7744379932373165e-05 -6.1140073230600632e-04 2.8163756885398049e-03  6.8774236222879164e-05 -6.9664920806326597e-04 3.0779270057416288e-03  1.0660566357681516e-04 -8.1769961036303059e-04 3.2808881114283995e-03  1.3958808682222433e-04 -1.0302373365067561e-03 4.5822557746756001e-03  -9.5420660955321688e-06 -1.1604065871181153e-03 5.4332484644003184e-03  -1.4242236586058335e-04 -1.1342287842224688e-03 5.1610869434558964e-03  -1.6340378163515786e-04 -1.1019509358256704e-03 5.0274492355894115e-03  -4.7989977633126711e-04 -1.3505651983914551e-03 5.1093844821059079e-03  0.0000000000000000e+00 0.0000000000000000e+00 0.0000000000000000e+00  2.1991438532809562e-06 -3.8881067829813614e-07 6.5228037004022000e-06  4.4077450145871389e-06 -1.3161607839446437e-06 2.5801188139984571e-05  6.4535351957932040e-06 -2.7657562862172384e-06 5.7245994579321141e-05  8.3199379473452763e-06 -4.6961147976428701e-06 9.9887492742586656e-05  9.9940912495989798e-06 -7.0614634091178314e-06 1.5260910160519878e-04  1.1480018378692829e-05 -9.8141404346033819e-06 2.1430151358920732e-04  1.2784706481057125e-05 -1.2908092484275178e-05 2.8391978143638521e-04  1.3912107453714370e-05 -1.6299218426388231e-05 3.6043728482889736e-04  1.4867507783875727e-05 -1.9944408002127550e-05 4.4284749322418779e-04  1.5658640005294771e-05 -2.3802149452407701e-05 5.3018604060650707e-04  1.6294849568002963e-05 -2.7833247025870529e-05 6.2153776838133439e-04  1.6787827091514381e-05 -3.2001334192064410e-05 7.1604653492616957e-04  1.7151326555828923e-05 -3.6273451151256527e-05 8.1293452059570225e-04  1.7399439005371166e-05 -4.0620489279580373e-05 9.1150469006317527e-04  1.7549835420046957e-05 -4.5017001564440864e-05 1.0111355551254220e-03  1.7626741876009837e-05 -4.9441556783446893e-05 1.1113335369249268e-03  1.7655886572304238e-05 -5.3879370508232619e-05 1.2117645249747554e-03  1.7661110054599903e-05 -5.8323233486071688e-05 1.3122348474688406e-03  0.0000000000000000e+00 0.0000000000000000e+00 0.0000000000000000e+00  2.2398094162312226e-06 -5.7707530474960694e-07 6.4167710004668921e-06  4.6104425093391188e-06 -1.4785531053883948e-06 2.5685383400543876e-05  6.7932640645553071e-06 -2.9144475176988635e-06 5.7121402696956501e-05  8.7869893598062474e-06 -4.8299300181969652e-06 9.9754005464307467e-05  1.0576415364131641e-05 -7.1803676223791552e-06 1.5246678558609802e-04  1.2164984049290042e-05 -9.9189217791158906e-06 2.1415133440971958e-04  1.3560524196901852e-05 -1.2999197776542336e-05 2.8376316840431699e-04  1.4767391327331939e-05 -1.6376956935578962e-05 3.6027548708497361e-04  1.5791018948326383e-05 -2.0009303027035038e-05 4.4268168289689187e-04  1.6639570964011938e-05 -2.3854870589433025e-05 5.3001733518340645e-04  1.7322967067325865e-05 -2.7874605186282104e-05 6.2136718275918696e-04  1.7853534929844933e-05 -3.2032340840526817e-05 7.1587499095881297e-04  1.8245953923676147e-05 -3.6295171555369442e-05 8.1276280748747659e-04  1.8515310876737969e-05 -4.0634050902827964e-05 9.1133340718504638e-04  1.8679802252440310e-05 -4.5024080013154788e-05 1.0109650892740725e-03  1.8764732733177050e-05 -4.9444226318004244e-05 1.1111639023284083e-03  1.8797797155291687e-05 -5.3879497008658896e-05 1.2115951183356772e-03  1.8804485330891739e-05 -5.8322221506031990e-05 1.3120648193764694e-03  0.0000000000000000e+00 0.0000000000000000e+00 0.0000000000000000e+00  -4.3648281343560010e-04 -6.4690439428055451e-04 -3.0244699086661156e-03  -1.2819902739027495e-04 -1.0253117678493476e-03 -4.7256909159345889e-03  4.0368586732823292e-04 -8.8980425527516061e-04 -3.3670289532776627e-03  5.4650367558871881e-04 -3.4023305934528688e-04 2.6062602223352487e-05  2.1721859478617607e-04 5.1492119145830830e-05 1.3740058911193775e-03  1.5130594324836880e-05 1.1350451792863491e-04 7.6328699267958725e-04  7.0599584244158525e-05 1.5400570719504439e-04 9.9963897758250492e-04  1.0340455337970423e-04 2.4715428339056983e-04 1.5654577986690037e-03  9.9532126843782258e-05 3.3109476589340370e-04 1.9121142690265486e-03  1.1987660850497189e-04 4.1689153698961138e-04 2.3353607698478945e-03  1.1502158362896912e-04 5.1277391681355130e-04 2.8936339074798006e-03  7.4587425019559202e-05 5.8959834627218268e-04 3.1690448982920781e-03  1.3296497637948953e-04 6.9159094033581807e-04 3.4197577973331585e-03  1.8998497888322491e-04 9.0634655747702259e-04 4.6783424663465597e-03  6.6887410630298250e-05 1.0787358321009003e-03 5.5351360611287743e-03  -6.1483903398719595e-05 1.1095964241738681e-03 5.4414892154353396e-03  -1.1405527001079316e-04 1.1588474745836857e-03 5.4808004752280393e-03  -3.7085832338541459e-04 1.3703153764207227e-03 5.0988113328748058e-03  0.0000000000000000e+00 0.0000000000000000e+00 0.0000000000000000e+00  -6.3979333384129038e-04 -1.0334750922565742e-03 -6.1626917329789905e-03  -2.1911822168222409e-04 -1.7885714585424866e-03 -9.9257356352032439e-03  6.0259552557567742e-04 -1.6439036522320704e-03 -7.6195652901215492e-03  8.5087666368265265e-04 -7.1428359351894581e-04 -9.4533923552924390e-04  3.3731566112334171e-04 2.4675737778708145e-05 2.2392471620785088e-03  -1.5786752758891282e-06 1.8526383865312784e-04 1.3847520849599414e-03  9.0959376698891380e-05 2.6365241313175197e-04 1.7825468225348181e-03  1.4947011014094892e-04 4.2899084419662192e-04 2.8797983163879937e-03  1.3987645179796367e-04 5.8330580624455137e-04 3.5916338812691101e-03  1.7063274509093664e-04 7.3886754006150641e-04 4.4111267840191556e-03  1.6742296324873503e-04 9.1437809320153263e-04 5.4805928715371127e-03  9.7814522763672854e-05 1.0591772926118255e-03 6.0856137346588200e-03  1.7296622333337790e-04 1.2395848268804681e-03 6.6359659203762151e-03  2.7261853453375