<?xml version="1.0"?>
<VTKFile type="UnstructuredGrid"  version="0.1"  >
<UnstructuredGrid>
<Piece  NumberOfPoints="760" NumberOfCells="3024">
<Points>
<DataArray  type="Float64"  NumberOfComponents="3"  format="ascii">0 0 0  0.05555555555555555 0 0  0.1111111111111111 0 0  0.1666666666666667 0 0  0.2222222222222222 0 0  0.2777777777777778 0 0  0.3333333333333333 0 0  0.3888888888888889 0 0  0.4444444444444444 0 0  0.5 0 0  0.5555555555555556 0 0  0.6111111111111112 0 0  0.6666666666666666 0 0  0.7222222222222222 0 0  0.7777777777777778 0 0  0.8333333333333334 0 0  0.8888888888888888 0 0  0.9444444444444444 0 0  1 0 0  0 0.01428571428571429 0  0.05555555555555555 0.01428571428571429 0  0.1111111111111111 0.01428571428571429 0  0.1666666666666667 0.01428571428571429 0  0.2222222222222222 0.01428571428571429 0  0.2777777777777778 0.01428571428571429 0  0.3333333333333333 0.01428571428571429 0  0.3888888888888889 0.01428571428571429 0  0.4444444444444444 0.01428571428571429 0  0.5 0.01428571428571429 0  0.5555555555555556 0.01428571428571429 0  0.6111111111111112 0.01428571428571429 0  0.6666666666666666 0.01428571428571429 0  0.7222222222222222 0.01428571428571429 0  0.7777777777777778 0.01428571428571429 0  0.8333333333333334 0.01428571428571429 0  0.8888888888888888 0.01428571428571429 0  0.9444444444444444 0.01428571428571429 0  1 0.01428571428571429 0  0 0.02857142857142857 0  0.05555555555555555 0.02857142857142857 0  0.1111111111111111 0.02857142857142857 0  0.1666666666666667 0.02857142857142857 0  0.2222222222222222 0.02857142857142857 0  0.2777777777777778 0.02857142857142857 0  0.3333333333333333 0.02857142857142857 0  0.3888888888888889 0.02857142857142857 0  0.4444444444444444 0.02857142857142857 0  0.5 0.02857142857142857 0  0.5555555555555556 0.02857142857142857 0  0.6111111111111112 0.02857142857142857 0  0.6666666666666666 0.02857142857142857 0  0.7222222222222222 0.02857142857142857 0  0.7777777777777778 0.02857142857142857 0  0.8333333333333334 0.02857142857142857 0  0.8888888888888888 0.02857142857142857 0  0.9444444444444444 0.02857142857142857 0  1 0.02857142857142857 0  0 0.04285714285714286 0  0.05555555555555555 0.04285714285714286 0  0.1111111111111111 0.04285714285714286 0  0.1666666666666667 0.04285714285714286 0  0.2222222222222222 0.04285714285714286 0  0.2777777777777778 0.04285714285714286 0  0.3333333333333333 0.04285714285714286 0  0.3888888888888889 0.04285714285714286 0  0.4444444444444444 0.04285714285714286 0  0.5 0.04285714285714286 0  0.5555555555555556 0.04285714285714286 0  0.6111111111111112 0.04285714285714286 0  0.6666666666666666 0.04285714285714286 0  0.7222222222222222 0.04285714285714286 0  0.7777777777777778 0.04285714285714286 0  0.8333333333333334 0.04285714285714286 0  0.8888888888888888 0.04285714285714286 0  0.9444444444444444 0.04285714285714286 0  1 0.04285714285714286 0  0 0.05714285714285715 0  0.05555555555555555 0.05714285714285715 0  0.1111111111111111 0.05714285714285715 0  0.1666666666666667 0.05714285714285715 0  0.2222222222222222 0.05714285714285715 0  0.2777777777777778 0.05714285714285715 0  0.3333333333333333 0.05714285714285715 0  0.3888888888888889 0.05714285714285715 0  0.4444444444444444 0.05714285714285715 0  0.5 0.05714285714285715 0  0.5555555555555556 0.05714285714285715 0  0.6111111111111112 0.05714285714285715 0  0.6666666666666666 0.05714285714285715 0  0.7222222222222222 0.05714285714285715 0  0.7777777777777778 0.05714285714285715 0  0.8333333333333334 0.05714285714285715 0  0.8888888888888888 0.05714285714285715 0  0.9444444444444444 0.05714285714285715 0  1 0.05714285714285715 0  0 0.07142857142857142 0  0.05555555555555555 0.07142857142857142 0  0.1111111111111111 0.07142857142857142 0  0.1666666666666667 0.07142857142857142 0  0.2222222222222222 0.07142857142857142 0  0.2777777777777778 0.07142857142857142 0  0.3333333333333333 0.07142857142857142 0  0.3888888888888889 0.07142857142857142 0  0.4444444444444444 0.07142857142857142 0  0.5 0.07142857142857142 0  0.5555555555555556 0.07142857142857142 0  0.6111111111111112 0.07142857142857142 0  0.6666666666666666 0.07142857142857142 0  0.7222222222222222 0.07142857142857142 0  0.7777777777777778 0.07142857142857142 0  0.8333333333333334 0.07142857142857142 0  0.8888888888888888 0.07142857142857142 0  0.9444444444444444 0.07142857142857142 0  1 0.07142857142857142 0  0 0.08571428571428573 0  0.05555555555555555 0.08571428571428573 0  0.1111111111111111 0.08571428571428573 0  0.1666666666666667 0.08571428571428573 0  0.2222222222222222 0.08571428571428573 0  0.2777777777777778 0.08571428571428573 0  0.3333333333333333 0.08571428571428573 0  0.3888888888888889 0.08571428571428573 0  0.4444444444444444 0.08571428571428573 0  0.5 0.08571428571428573 0  0.5555555555555556 0.08571428571428573 0  0.6111111111111112 0.08571428571428573 0  0.6666666666666666 0.08571428571428573 0  0.7222222222222222 0.08571428571428573 0  0.7777777777777778 0.08571428571428573 0  0.8333333333333334 0.08571428571428573 0  0.8888888888888888 0.08571428571428573 0  0.9444444444444444 0.08571428571428573 0  1 0.08571428571428573 0  0 0.1 0  0.05555555555555555 0.1 0  0.1111111111111111 0.1 0  0.1666666666666667 0.1 0  0.2222222222222222 0.1 0  0.2777777777777778 0.1 0  0.3333333333333333 0.1 0  0.3888888888888889 0.1 0  0.4444444444444444 0.1 0  0.5 0.1 0  0.5555555555555556 0.1 0  0.6111111111111112 0.1 0  0.6666666666666666 0.1 0  0.7222222222222222 0.1 0  0.7777777777777778 0.1 0  0.8333333333333334 0.1 0  0.8888888888888888 0.1 0  0.9444444444444444 0.1 0  1 0.1 0  0 0 0.01  0.05555555555555555 0 0.01  0.1111111111111111 0 0.01  0.1666666666666667 0 0.01  0.2222222222222222 0 0.01  0.2777777777777778 0 0.01  0.3333333333333333 0 0.01  0.3888888888888889 0 0.01  0.4444444444444444 0 0.01  0.5 0 0.01  0.5555555555555556 0 0.01  0.6111111111111112 0 0.01  0.6666666666666666 0 0.01  0.7222222222222222 0 0.01  0.7777777777777778 0 0.01  0.8333333333333334 0 0.01  0.8888888888888888 0 0.01  0.9444444444444444 0 0.01  1 0 0.01  0 0.01428571428571429 0.01  0.05555555555555555 0.01428571428571429 0.01  0.1111111111111111 0.01428571428571429 0.01  0.1666666666666667 0.01428571428571429 0.01  0.2222222222222222 0.01428571428571429 0.01  0.2777777777777778 0.01428571428571429 0.01  0.3333333333333333 0.01428571428571429 0.01  0.3888888888888889 0.01428571428571429 0.01  0.4444444444444444 0.01428571428571429 0.01  0.5 0.01428571428571429 0.01  0.5555555555555556 0.01428571428571429 0.01  0.6111111111111112 0.01428571428571429 0.01  0.6666666666666666 0.01428571428571429 0.01  0.7222222222222222 0.01428571428571429 0.01  0.7777777777777778 0.01428571428571429 0.01  0.8333333333333334 0.01428571428571429 0.01  0.8888888888888888 0.01428571428571429 0.01  0.9444444444444444 0.01428571428571429 0.01  1 0.01428571428571429 0.01  0 0.02857142857142857 0.01  0.05555555555555555 0.02857142857142857 0.01  0.1111111111111111 0.02857142857142857 0.01  0.1666666666666667 0.02857142857142857 0.01  0.2222222222222222 0.02857142857142857 0.01  0.2777777777777778 0.02857142857142857 0.01  0.3333333333333333 0.02857142857142857 0.01  0.3888888888888889 0.02857142857142857 0.01  0.4444444444444444 0.02857142857142857 0.01  0.5 0.02857142857142857 0.01  0.5555555555555556 0.02857142857142857 0.01  0.6111111111111112 0.02857142857142857 0.01  0.6666666666666666 0.02857142857142857 0.01  0.7222222222222222 0.02857142857142857 0.01  0.7777777777777778 0.02857142857142857 0.01  0.8333333333333334 0.02857142857142857 0.01  0.8888888888888888 0.02857142857142857 0.01  0.9444444444444444 0.02857142857142857 0.01  1 0.02857142857142857 0.01  0 0.04285714285714286 0.01  0.05555555555555555 0.04285714285714286 0.01  0.1111111111111111 0.04285714285714286 0.01  0.1666666666666667 0.04285714285714286 0.01  0.2222222222222222 0.04285714285714286 0.01  0.2777777777777778 0.04285714285714286 0.01  0.3333333333333333 0.04285714285714286 0.01  0.3888888888888889 0.04285714285714286 0.01  0.4444444444444444 0.04285714285714286 0.01  0.5 0.04285714285714286 0.01  0.5555555555555556 0.04285714285714286 0.01  0.6111111111111112 0.04285714285714286 0.01  0.6666666666666666 0.04285714285714286 0.01  0.7222222222222222 0.04285714285714286 0.01  0.7777777777777778 0.04285714285714286 0.01  0.8333333333333334 0.04285714285714286 0.01  0.8888888888888888 0.04285714285714286 0.01  0.9444444444444444 0.04285714285714286 0.01  1 0.04285714285714286 0.01  0 0.05714285714285715 0.01  0.05555555555555555 0.05714285714285715 0.01  0.1111111111111111 0.05714285714285715 0.01  0.1666666666666667 0.05714285714285715 0.01  0.2222222222222222 0.05714285714285715 0.01  0.2777777777777778 0.05714285714285715 0.01  0.3333333333333333 0.05714285714285715 0.01  0.3888888888888889 0.05714285714285715 0.01  0.4444444444444444 0.05714285714285715 0.01  0.5 0.05714285714285715 0.01  0.5555555555555556 0.05714285714285715 0.01  0.6111111111111112 0.05714285714285715 0.01  0.6666666666666666 0.05714285714285715 0.01  0.7222222222222222 0.05714285714285715 0.01  0.7777777777777778 0.05714285714285715 0.01  0.8333333333333334 0.05714285714285715 0.01  0.8888888888888888 0.05714285714285715 0.01  0.9444444444444444 0.05714285714285715 0.01  1 0.05714285714285715 0.01  0 0.07142857142857142 0.01  0.05555555555555555 0.07142857142857142 0.01  0.1111111111111111 0.07142857142857142 0.01  0.1666666666666667 0.07142857142857142 0.01  0.2222222222222222 0.07142857142857142 0.01  0.2777777777777778 0.07142857142857142 0.01  0.3333333333333333 0.07142857142857142 0.01  0.3888888888888889 0.07142857142857142 0.01  0.4444444444444444 0.07142857142857142 0.01  0.5 0.07142857142857142 0.01  0.5555555555555556 0.07142857142857142 0.01  0.6111111111111112 0.07142857142857142 0.01  0.6666666666666666 0.07142857142857142 0.01  0.7222222222222222 0.07142857142857142 0.01  0.7777777777777778 0.07142857142857142 0.01  0.8333333333333334 0.07142857142857142 0.01  0.8888888888888888 0.07142857142857142 0.01  
[...]
<PointData  Vectors="f_36"> 
<DataArray  type="Float64"  Name="f_36"  NumberOfComponents="3" format="ascii">0.0000000000000000e+00 0.0000000000000000e+00 0.0000000000000000e+00  -1.2261432583629201e-03 2.1464184303561845e-03 -4.2134112109593778e-03  -2.1317362024915517e-03 5.0394720389284929e-03 -1.1674383244996556e-02  -2.6038095140418381e-03 8.6215302285582475e-03 -2.2391713747274323e-02  -2.0380023539629030e-03 1.1731963261222349e-02 -3.3158371171862211e-02  -5.5506096425755099e-04 1.3000938567761487e-02 -3.8501546204782293e-02  3.8171358358406269e-04 1.2545761063713549e-02 -3.6745619727136268e-02  6.7435553975510518e-05 1.2091122155711037e-02 -3.4620624395493203e-02  -3.0896903495017451e-04 1.2366002709511560e-02 -3.6138694589920833e-02  -3.1232908408136017e-04 1.2700641012830628e-02 -3.7616469305406526e-02  -2.6352318687301797e-04 1.2914996147797744e-02 -3.8697063873315347e-02  -9.2010267768771845e-05 1.2964558558109582e-02 -3.9409970721401982e-02  -2.0186174579285549e-04 1.3012590322094791e-02 -3.9243236247138116e-02  -5.2322348993487301e-04 1.3581256340645231e-02 -4.1086752079122595e-02  -4.9888297969943765e-04 1.4349652463655214e-02 -4.4125839712606925e-02  -2.1627543003069921e-04 1.4809209251550248e-02 -4.6073520661134959e-02  1.2637494997184284e-04 1.4953360012248645e-02 -4.7080049789718484e-02  7.5849408185723688e-04 1.4995873915127130e-02 -4.7553071849100501e-02  1.6185213748033120e-03 1.5809724195268195e-02 -4.6950053343535178e-02  0.0000000000000000e+00 0.0000000000000000e+00 0.0000000000000000e+00  -1.1365544310656618e-03 1.7681184535814276e-03 -2.3457194621397327e-03  -1.9779042003340249e-03 4.3352319345177793e-03 -7.2137349980811042e-03  -2.4717387091245297e-03 7.6238954370886061e-03 -1.4652496056349896e-02  -2.0342096204211220e-03 1.0603917780938377e-02 -2.2510396818194257e-02  -6.7076648489032531e-04 1.1950160629868083e-02 -2.6661396988607314e-02  3.4536349958763066e-04 1.1615665013643540e-02 -2.5391315363935039e-02  1.3002959424459327e-04 1.1158844171960563e-02 -2.3697651508667983e-02  -3.0845130350686792e-04 1.1383741071265168e-02 -2.4935331327933161e-02  -3.1753875741920713e-04 1.1707498817149291e-02 -2.6150578483202888e-02  -2.6440670390587523e-04 1.1921501403348201e-02 -2.7037911035107158e-02  -1.1991266460314734e-04 1.1982039545602115e-02 -2.7717587538678218e-02  -1.7094313764506378e-04 1.2005815747915911e-02 -2.7569132285210105e-02  -4.9424316382809888e-04 1.2496433179003081e-02 -2.8904787608351315e-02  -5.2086034548523541e-04 1.3218002095859275e-02 -3.1258282719659865e-02  -2.5535292439329030e-04 1.3679798979141579e-02 -3.2810670684382655e-02  2.8953544095506939e-05 1.3845009799776794e-02 -3.3697606080808171e-02  4.4270640767627041e-04 1.3927004339878727e-02 -3.4313955230337763e-02  1.6386788268956910e-03 1.5111532224413655e-02 -3.4632388077560070e-02  0.0000000000000000e+00 0.0000000000000000e+00 0.0000000000000000e+00  -6.8672409376019589e-04 1.0029576308886999e-03 -8.8479843867311195e-04  -1.2143455977635281e-03 2.6215219589463814e-03 -3.0907887643944689e-03  -1.5418778834379535e-03 4.8281515731529584e-03 -6.6692156186669970e-03  -1.3130460276224124e-03 6.9450128977094341e-03 -1.0650119143554156e-02  -4.9814679934278986e-04 7.9903761148474913e-03 -1.2939759849331805e-02  1.6521160332162119e-04 7.7894083505347456e-03 -1.2436558472715414e-02  6.3320930507367498e-05 7.4264864515187785e-03 -1.1634055414026874e-02  -2.3843429536362997e-04 7.5759151604861781e-03 -1.2430179743501491e-02  -2.5138738135023952e-04 7.8222099080401883e-03 -1.3236588268965141e-02  -2.1549079155244700e-04 7.9903665155175215e-03 -1.3861189983745749e-02  -1.3609379738871056e-04 8.0512121388882901e-03 -1.4427866616541678e-02  -1.5093837573104175e-04 8.0453369156549808e-03 -1.4497323967584725e-02  -3.5547712350600516e-04 8.3581961364875158e-03 -1.5304080760530296e-02  -3.9203989064386314e-04 8.8737129854463345e-03 -1.6693611699550519e-02  -2.3200556325409357e-04 9.2266779634912841e-03 -1.7685187517556145e-02  -7.1910535782328789e-05 9.3805853435843922e-03 -1.8351524843047293e-02  4.6607389143866263e-05 9.4360543575356219e-03 -1.8928391076822777e-02  1.7228565562129360e-03 1.1057604757059586e-02 -1.9788677806022802e-02  0.0000000000000000e+00 0.0000000000000000e+00 0.0000000000000000e+00  -2.0986538276472635e-05 1.7681548452823909e-06 -3.1119554714160590e-05  -3.9991808048218137e-05 5.6295205792148417e-06 -1.1704145995101692e-04  -5.7021732089648535e-05 1.1570275383578338e-05 -2.5379939799375213e-04  -7.2058549144338014e-05 1.9345776942115148e-05 -4.3568542659780678e-04  -8.5193858661636269e-05 2.8756114830489915e-05 -6.5717021795838539e-04  -9.6556602640972147e-05 3.9606256687903104e-05 -9.1306061942094568e-04  -1.0627775955984331e-04 5.1711356562495939e-05 -1.1985639978674342e-03  -1.1447283589142704e-04 6.4897236047947490e-05 -1.5092326419648022e-03  -1.2125535965851871e-04 7.8998622092805334e-05 -1.8409162499678300e-03  -1.2674698001817700e-04 9.3859422355963148e-05 -2.1897972011706499e-03  -1.3107458701655888e-04 1.0933496617637863e-04 -2.5524102858657046e-03  -1.3436908912182365e-04 1.2529344814192440e-04 -2.9256529567291390e-03  -1.3676090958479446e-04 1.4161659845976057e-04 -3.3067979157652789e-03  -1.3838126780857770e-04 1.5819996722390300e-04 -3.6934762155009654e-03  -1.3937126972733726e-04 1.7495461944549198e-04 -4.0836945764747530e-03  -1.3988288639280220e-04 1.9180990570533105e-04 -4.4758782407506347e-03  -1.4007447817306447e-04 2.0871491697693141e-04 -4.8688936276003901e-03  -1.4010910081865767e-04 2.2564080768185812e-04 -5.2620652324960899e-03  0.0000000000000000e+00 0.0000000000000000e+00 0.0000000000000000e+00  -1.9800730758595078e-05 2.9036926543743467e-06 -3.0794124439870114e-05  -3.9545452280120184e-05 6.6575005340811727e-06 -1.1657195425024503e-04  -5.7272548297276129e-05 1.2484374126961922e-05 -2.5327102532138475e-04  -7.2943101856364593e-05 2.0144987970798578e-05 -4.3510368433915370e-04  -8.6649075772565173e-05 2.9447926777309719e-05 -6.5653980566969083e-04  -9.8520000307664984e-05 4.0199533743861878e-05 -9.1238685966636072e-04  -1.0869151061512106e-04 5.2213387186420366e-05 -1.1978529798467269e-03  -1.1728304452689662e-04 6.5314155920197033e-05 -1.5084897845987102e-03  -1.2440928554493410e-04 7.9337286690828252e-05 -1.8401460171642574e-03  -1.3019390617183442e-04 9.4127244697659394e-05 -2.1890037900411450e-03  -1.3476654516491463e-04 1.0953962036148464e-04 -2.5515975666741473e-03  -1.3826117051354118e-04 1.2544271543296609e-04 -2.9248243698760065e-03  -1.4081229604121127e-04 1.4171792083453140e-04 -3.3059565118116713e-03  -1.4255429265707775e-04 1.5826122740368075e-04 -3.6926244872315778e-03  -1.4363115160298808e-04 1.7498465235850605e-04 -4.0828344849010122e-03  -1.4419890769304107e-04 1.9181805202556169e-04 -4.4750110976272961e-03  -1.4442062828066599e-04 2.0871064322922002e-04 -4.8680196328656812e-03  -1.4446442360253336e-04 2.2563207237520324e-04 -5.2611830402513491e-03  0.0000000000000000e+00 0.0000000000000000e+00 0.0000000000000000e+00  -8.0021196497562762e-04 -1.1670346858041860e-03 -1.5495883504598343e-03  -1.2929527731263780e-03 -2.8983089666292775e-03 -4.3355602293380490e-03  -1.5358564943362531e-03 -5.2353796981160512e-03 -8.3450486587475226e-03  -1.1941545476965596e-03 -7.5173403650591235e-03 -1.2322777186287217e-02  -3.5100580710979435e-04 -8.7495220347534926e-03 -1.4195485354576666e-02  1.6781161089126005e-04 -8.6184162273045626e-03 -1.3370586697017250e-02  -3.7246896977421912e-05 -8.1693301366397540e-03 -1.2722438434002099e-02  -2.7351828243384112e-04 -8.2474251902241048e-03 -1.3686055748075696e-02  -2.7505576632808271e-04 -8.4751042577890460e-03 -1.4439575956308130e-02  -2.5566525444391361e-04 -8.6298729238604727e-03 -1.5046940661756634e-02  -1.5679604569789559e-04 -8.7082269167102228e-03 -1.5635628808828950e-02  -1.8960900942720848e-04 -8.6490804901271385e-03 -1.5743387729940678e-02  -3.8698828177717467e-04 -8.8182799862893818e-03 -1.6567303718922333e-02  -4.2689693227572891e-04 -9.2820932787313522e-03 -1.7948650471213634e-02  -3.1801317881154502e-04 -9.7197301287280345e-03 -1.9015774564698090e-02  -1.5728319556058195e-04 -1.0026250795589180e-02 -1.9860646469520585e-02  1.1508014205644526e-04 -1.0386843492618078e-02 -2.0461726548796758e-02  1.1422805963559645e-03 -1.1864030982459233e-02 -2.0342774192929711e-02  0.0000000000000000e+00 0.0000000000000000e+00 0.0000000000000000e+00  -1.2354744828606652e-03 -1.5217443733368220e-03 -3.1502575298313676e-03  -2.0272783068804503e-03 -3.8986272940138502e-03 -8.5670105623687053e-03  -2.4364421818317038e-03 -7.1197357929574214e-03 -1.6270451543893880e-02  -1.9287801207246420e-03 -1.0351673284717441e-02 -2.3923951938254813e-02  -5.7572387525688660e-04 -1.2240997600484870e-02 -2.7648877503479913e-02  3.4089255720271509e-04 -1.2235873734140527e-02 -2.6156321062628805e-02  4.7205931760188028e-05 -1.1629134393393961e-02 -2.4601466109096460e-02  -3.7663650643848524e-04 -1.1665390939281260e-02 -2.5981675722224259e-02  -3.6949888506092158e-04 -1.1962635224581530e-02 -2.7131773442112529e-02  -3.3398348419274372e-04 -1.2184024942089729e-02 -2.7960940136119921e-02  -1.8533746712410393e-04 -1.2303798103452116e-02 -2.8754330054405468e-02  -2.0325349480693008e-04 -1.2224421756697246e-02 -2.8646269481383619e-02  -5.2368593448237340e-04 -1.2415518765695525e-02 -2.9781326351692027e-02  -6.0376271494523603e-04 -1.3025471580786050e-02 -3.2032126060679435e-02  -4.1765917299972074e-04 -1.3648813777304659e-02 -3.3764577749528409e-02  -1.3549284680013955e-04 -1.4114938305744824e-02 -3.5063716340462368e-02  3.1259877673136724e-04 -1.4706759486257102e-02 -3.5910266060482018e-02  1.0324260376089278e-03 -1.6987569854906029e-02 -3.5644554134717156e-02  0.0000000000000000e+00 0.0000000000000000e+00 0.0000000000000000e+00  -1.1877092549404246e-03 -1.4693198499162831e-03 -4.5064450833623478e-03  -2.0159149513327063e-03 -3.9514812008199620e-03 -1.2008993235285615e-02  -2.5159031724855891e-03 -7.3452672281865807e-03 -2.2547918526107248e-02  -2.1089085541474107e-03 -1.0832852973076346e-02 -3.3061305984601920e-02  -7.3412010263233655e-04 -1.2979944434465568e-02 -3.8487834936982407e-02  3.7262329963387846e-04 -1.3099926273582037e-02 -3.6958965495905695e-02  1.3781353077476651e-04 -1.2472957594208597e-02 -3.4816852790590075e-02  -4.0593078418066711e-04 -1.2472142268721760e-02 -3.6299346760215984e-02  -3.9560688483122192e-04 -1.2770453626082640e-02 -3.7743868743164682e-02  -3.5052589867618064e-04 -1.3009990442602126e-02 -3.8752056875712856e-02  -2.2104049042533390e-04 -1.3149082036773410e-02 -3.9699868944015615e-02  -1.7305438397470496e-04 -1.3062119075700403e-02 -3.9525471124637793e-02  -5.1164298489537541e-04 -1.3236459346218294e-02 -4.0836046063927871e-02  -6.3582528797797460e-04 -1.3861874999522922e-02 -4.3671571636775687e-02  -4.2344065256482317e-04 -1.4533528679512207e-02 -4.5958995270355886e-02  -9.3551816359440157e-05 -1.5068627261248651e-02 -4.7678001214778318e-02  5.5173022941831112e-04 -1.5703859109090945e-02 -4.8897513986721361e-02  1.1521989410349146e-03 -1.8281486120941277e-02 -4.9468949575350259e-02  0.0000000000000000e+00 0.0000000000000000e+00 0.0000000000000000e+00  -4.9698908403115528e-04 8.0335197111534742e-04 -4.0117778059316246e-03  -9.2280279571048819e-04 2.0274310388462610e-03 -1.1367905890677711e-02  -1.1743391675669795e-03 3.5887560583164396e-03 -2.1993535568926473e-02  -9.9650165152188799e-04 5.0072284457852055e-03 -3.2759748803309029e-02  -3.6197090288088283e-04 5.6395618724182058e-03 -3.8177954589402437e-02  1.3826668825424204e-04 5.4550403793032186e-03 -3.6448203191174457e-02  8.0665536112329864e-05 5.2223659305068275e-03 -3.4267267031492361e-02  -9.5371415864081228e-05 5.3423734006278626e-03 -3.5758803640582190e-02  -1.2661001835918086e-04 5.5090627380662395e-03 -3.7245394807598219e-02  -1.2505054097463811e-04 5.6174654764178759e-03 -3.8326680058367230e-02  -4.8934749805408960e-05 5.6521847575439835e-03 -3.9047505938422204e-02  -5.4696148216240286e-05 5.6634134301405273e-03 -3.8857724650454971e-02  -1.6538831093734020e-04 5.9111217475763377e-03 -4.0659232050129807e-02  -1.5160243260090874e-04 6.2749351680364872e-03 -4.3693376383098358e-02  1.8803050179443008e-06 6.5021662725242325e-03 -4.5651703476478289e-02  2.4774406050967674e-04 6.5885589350894256e-03 -4.6664154602577203e-02  7.5921313823939889e-04 6.7545844209521916e-03 -4.7132965216554412e-02  1.4796616449117769e-03 7.6642195330528014e-03 -4.6527021307770831e-02  0.0000000000000000e+00 0.0000000000000000e+00 0.0000000000000000e+00  -5.2357655566851640e-04 7.0869213006565358e-04 -2.2026266883065082e-03  -9.4340711785185377e-04 1.7719626864716601e-03 -6.9785907339423425e-03  -1.2036788544637100e-03 3.1518336938212749e-03 -1.4332629282263386e-02  -1.0416985095518976e-03 4.4247397650351320e-03 -2.2172816393202167e-02  -4.0828552327330699e-04 5.0263210407727630e-03 -2.6366366541100774e-02  1.3530282894994139e-04 4.9063530497287745e-03 -2.5101350825376713e-02  1.0102386677400179e-04 4.7092548105561677e-03 -2.3350052498505244e-02  -1.0833209605677964e-04 4.8041884556015773e-03 -2.4568576774265140e-02  -1.4027643452575996e-04 4.9527519128645704e-03 -2.5798103247027776e-02  -1.2950199755520331e-04 5.0527268554277490e-03 -2.6684228953430415e-02  -6.1498548846222335e-05 5.0879680860783103e-03 -2.7371234397252166e-02  -5.8035571258458427e-05 5.1012614922202656e-03 -2.7205916033576128e-02  -1.8318919620460155e-04 5.3135913532553879e-03 -2.8505999243965078e-02  -1.9023270155926430e-04 5.6342025076008724e-03 -3.0856752304485483e-02  -4.1911642198311591e-05 5.8429829694851016e-03 -3.2417364106165615e-02  1.5821036001518123e-04 5.9183246410160449e-03 -3.3305847836013244e-02  4.8804886089572297e-04 6.0312805878423147e-03 -3.3929216396606426e-02  1.3826420485547239e-03 6.9998313629627612e-03 -3.4349194128754174e-02  0.0000000000000000e+00 0.0000000000000000e+00 0.0000000000000000e+00  -3.4374473501352237e-04 4.2381836610743448e-04 -7.1472741102022867e-04  -6.1576425693817818e-04 1.0693085925487778e-03 -2.7442172059277724e-03  -7.8980342473486777e-04 1.9311566110443751e-03 -6.1253694378992580e-03  -6.9639359525120392e-04 2.7458556079198596e-03 -9.9620464813816520e-03  -2.9715054742960489e-04 3.1534992522707912e-03 -1.2201233552221047e-02  6.4599171865725369e-05 3.1009298188650358e-03 -1.1687592668505687e-02  5.3965043351780623e-05 2.9817675531848410e-03 -1.0855390659595584e-02  -9.4313659289621923e-05 3.0419803568782792e-03 -1.1636575390099118e-02  -1.1829403948374787e-04 3.1414469248999760e-03 -1.2445812879469300e-02  -1.0736014113791176e-04 3.2126512035428340e-03 -1.3061820970986000e-02  -6.8413456336424632e-05 3.2434981891126600e-03 -1.3629205769996891e-02  -6.3481160375685697e-05 3.2558250520726226e-03 -1.3685216952237227e-02  -1.4851124610914089e-04 3.3894684070040065e-03 -1.4451385641702801e-02  -1.6292999265424133e-04 3.5967376016765445e-03 -1.5813354068365055e-02  -7.1722739097069776e-05 3.7398611415401005e-03 -1.6790832632998683e-02  3.8641162610978832e-05 3.8011466089325607e-03 -1.7450552626058966e-02  1.4780641712926502e-04 3.8406043220789951e-03 -1.8027780701823991e-02  1.2238842911901141e-03 4.6872531360745004e-03 -1.8914776323982002e-02  0.0000000000000000e+00 0.0000000000000000e+00 0.0000000000000000e+00  -9.8822885700265503e-06 1.6447320389527576e-06 -3.0247014509376539e-05  -1.9408456173431265e-05 5.4675889810975457e-06 -1.1624203983603930e-04  -2.7874446198091114e-05 1.1344662661480395e-05 -2.5308291965724788e-04  -3.5351191868589302e-05 1.9063894166419703e-05 -4.3505326569146701e-04  -4.1885479347935229e-05 2.8422466960992870e-05 -6.5661837809581017e-04  -4.7540446340623135e-05 3.9226397759165815e-05 -9.1258379364634820e-04  -5.2381570400279302e-05 5.1290776646384064e-05 -1.1981568084321029e-03  -5.6466841923210237e-05 6.4440587118126509e-05 -1.5088901338000840e-03  -5.9852211321005883e-05 7.8510171250636805e-05 -1.8406334423625226e-03  -6.2597456318662066e-05 9.3343360618018835e-05 -2.1895688292878791e-03  -6.4765056052029237e-05 1.0879529946152516e-04 -2.5522308862387069e-03  -6.6419512377058928e-05 1.2473391492090878e-04 -2.9255169080380080e-03  -6.7625399327372009e-05 1.4104048632843444e-04 -3.3066995813316878e-03  -6.8447353939868059e-05 1.5761028108644742e-04 -3.6934098442512812e-03  -6.8954417447018539e-05 1.7435425160057928e-04 -4.0836540043454120e-03  -6.9221081610717431e-05 1.9120137539577154e-04 -4.4758568799322853e-03  -6.9324986012718633e-05 2.0810013168163946e-04 -4.8688845409499953e-03  -6.9344737268608745e-05 2.2501997761986494e-04 -5.2620584968942671e-03  0.0000000000000000e+00 0.0000000000000000e+00 0.0000000000000000e+00  -1.0020361518238950e-05 2.4712324432665090e-06 -2.9749906191420380e-05  -2.0227402412811632e-05 6.1458526907001024e-06 -1.1569342240294137e-04  -2.9241993413275547e-05 1.1942850152965455e-05 -2.5248547126388555e-04  -3.7213430545381849e-05 1.9587888591951248e-05 -4.3440924278115599e-04  -4.4188586845657536e-05 2.8877166811108551e-05 -6.5593196890208574e-04  -5.0232212441060921e-05 3.9617166333550229e-05 -9.1186011545195042e-04  -5.5412722400728183e-05 5.1622391745470232e-05 -1.1974014550590122e-03  -5.9791018891719837e-05 6.4717186867001918e-05 -1.5081081357456896e-03  -6.3425191846680045e-05 7.8736104797077347e-05 -1.8398290963972728e-03  -6.6377497054215053e-05 9.3523310450743853e-05 -2.1887461068416597e-03  -6.8713411606320524e-05 1.0893412893638201e-04 -2.5513933991219303e-03  -7.0500712163729443e-05 1.2483658233948576e-04 -2.9246678001660703e-03  -7.1807652576102692e-05 1.4111184848366920e-04 -3.3058415358504793e-03  -7.2702550328879103e-05 1.5765539054108602e-04 -3.6925450936968547e-03  -7.3258383570024154e-05 1.7437866285380547e-04 -4.0827843022145649e-03  -7.3554223392493408e-05 1.9121098961343480e-04 -4.4749832778210440e-03  -7.3672738580557738e-05 2.0810085237056499e-04 -4.8680070669761865e-03  -7.3697880718718071e-05 2.2501666733562451e-04 -5.2611774063733054e-03  0.0000000000000000e+00 0.0000000000000000e+00 0.0000000000000000e+00  -3.9145919697433027e-04 -4.1598072181826487e-04 -1.3334421607619554e-03  -6.5237675661788085e-04 -1.0187777034758178e-03 -3.8077381120185396e-03  -8.0546678069544320e-04 -1.8411844256252074e-03 -7.3958250658366009e-03  -6.7604701301327539e-04 -2.6475357635720484e-03 -1.0950011396939246e-02  -2.5756040335052154e-04 -3.0907380017479546e-03 -1.2549929618112693e-02  6.5963134091528007e-05 -3.0510907967508565e-03 -1.1658097200897674e-02  8.7179881245717963e-06 -2.8826648090312205e-03 -1.1041884141824242e-02  -1.3489207850928209e-04 -2.8908494067253843e-03 -1.2017995961517524e-02  -1.5489540119383702e-04 -2.9557596083603123e-03 -1.2744632680583233e-02  -1.4695276340013434e-04 -2.9982063246299117e-03 -1.3315705243390884e-02  -9.6599447841504455e-05 -3.0126624682049095e-03 -1.3887012448859089e-02  -9.2065395404022668e-05 -2.9750521298349038e-03 -1.3988122075504955e-02  -1.8433023488936533e-04 -3.0133741777969500e-03 -1.4779913984166393e-02  -2.1008040421607421e-04 -3.1575085656751134e-03 -1.6091565368192100e-02  -1.4256326273910064e-04 -3.3005970190850354e-03 -1.7075249153161727e-02  -3.0988272756463366e-05 -3.3969860038192468e-03 -1.7848383827600348e-02  1.1855492677001727e-04 -3.5559957923676543e-03 -1.8355205698014541e-02  8.9120989629075126e-04 -4.1930244593534919e-03 -1.7695752708280214e-02  0.0000000000000000e+00 0.0000000000000000e+00 0.0000000000000000e+00  -5.5048134075832403e-04 -6.5990973350092230e-04 -3.0083508840235834e-03  -9.5538397218295217e-04 -1.7185081170802729e-03 -8.2996289074279243e-03  -1.1948821135724823e-03 -3.1681189195984887e-03 -1.5828923696271650e-02  -1.0176711198009952e-03 -4.6380829537252533e-03 -2.3325711979221019e-02  -3.8741390286915045e-04 -5.5165969532885361e-03 -2.6948425905653287e-02  1.2899652014340901e-04 -5.5329120969366081e-03 -2.5388328166115387e-02  5.4821829533105546e-05 -5.2506367987620811e-03 -2.3790028146575489e-02  -1.7681553800138797e-04 -5.2442697284944880e-03 -2.5178217471340168e-02  -2.0625838735334893e-04 -5.3612646640584516e-03 -2.6340516406989485e-02  -1.9430012536773