<?xml version="1.0"?>
<VTKFile type="UnstructuredGrid"  version="0.1"  >
<UnstructuredGrid>
<Piece  NumberOfPoints="760" NumberOfCells="3024">
<Points>
<DataArray  type="Float64"  NumberOfComponents="3"  format="ascii">0 0 0  0.05555555555555555 0 0  0.1111111111111111 0 0  0.1666666666666667 0 0  0.2222222222222222 0 0  0.2777777777777778 0 0  0.3333333333333333 0 0  0.3888888888888889 0 0  0.4444444444444444 0 0  0.5 0 0  0.5555555555555556 0 0  0.6111111111111112 0 0  0.6666666666666666 0 0  0.7222222222222222 0 0  0.7777777777777778 0 0  0.8333333333333334 0 0  0.8888888888888888 0 0  0.9444444444444444 0 0  1 0 0  0 0.01428571428571429 0  0.05555555555555555 0.01428571428571429 0  0.1111111111111111 0.01428571428571429 0  0.1666666666666667 0.01428571428571429 0  0.2222222222222222 0.01428571428571429 0  0.2777777777777778 0.01428571428571429 0  0.3333333333333333 0.01428571428571429 0  0.3888888888888889 0.01428571428571429 0  0.4444444444444444 0.01428571428571429 0  0.5 0.01428571428571429 0  0.5555555555555556 0.01428571428571429 0  0.6111111111111112 0.01428571428571429 0  0.6666666666666666 0.01428571428571429 0  0.7222222222222222 0.01428571428571429 0  0.7777777777777778 0.01428571428571429 0  0.8333333333333334 0.01428571428571429 0  0.8888888888888888 0.01428571428571429 0  0.9444444444444444 0.01428571428571429 0  1 0.01428571428571429 0  0 0.02857142857142857 0  0.05555555555555555 0.02857142857142857 0  0.1111111111111111 0.02857142857142857 0  0.1666666666666667 0.02857142857142857 0  0.2222222222222222 0.02857142857142857 0  0.2777777777777778 0.02857142857142857 0  0.3333333333333333 0.02857142857142857 0  0.3888888888888889 0.02857142857142857 0  0.4444444444444444 0.02857142857142857 0  0.5 0.02857142857142857 0  0.5555555555555556 0.02857142857142857 0  0.6111111111111112 0.02857142857142857 0  0.6666666666666666 0.02857142857142857 0  0.7222222222222222 0.02857142857142857 0  0.7777777777777778 0.02857142857142857 0  0.8333333333333334 0.02857142857142857 0  0.8888888888888888 0.02857142857142857 0  0.9444444444444444 0.02857142857142857 0  1 0.02857142857142857 0  0 0.04285714285714286 0  0.05555555555555555 0.04285714285714286 0  0.1111111111111111 0.04285714285714286 0  0.1666666666666667 0.04285714285714286 0  0.2222222222222222 0.04285714285714286 0  0.2777777777777778 0.04285714285714286 0  0.3333333333333333 0.04285714285714286 0  0.3888888888888889 0.04285714285714286 0  0.4444444444444444 0.04285714285714286 0  0.5 0.04285714285714286 0  0.5555555555555556 0.04285714285714286 0  0.6111111111111112 0.04285714285714286 0  0.6666666666666666 0.04285714285714286 0  0.7222222222222222 0.04285714285714286 0  0.7777777777777778 0.04285714285714286 0  0.8333333333333334 0.04285714285714286 0  0.8888888888888888 0.04285714285714286 0  0.9444444444444444 0.04285714285714286 0  1 0.04285714285714286 0  0 0.05714285714285715 0  0.05555555555555555 0.05714285714285715 0  0.1111111111111111 0.05714285714285715 0  0.1666666666666667 0.05714285714285715 0  0.2222222222222222 0.05714285714285715 0  0.2777777777777778 0.05714285714285715 0  0.3333333333333333 0.05714285714285715 0  0.3888888888888889 0.05714285714285715 0  0.4444444444444444 0.05714285714285715 0  0.5 0.05714285714285715 0  0.5555555555555556 0.05714285714285715 0  0.6111111111111112 0.05714285714285715 0  0.6666666666666666 0.05714285714285715 0  0.7222222222222222 0.05714285714285715 0  0.7777777777777778 0.05714285714285715 0  0.8333333333333334 0.05714285714285715 0  0.8888888888888888 0.05714285714285715 0  0.9444444444444444 0.05714285714285715 0  1 0.05714285714285715 0  0 0.07142857142857142 0  0.05555555555555555 0.07142857142857142 0  0.1111111111111111 0.07142857142857142 0  0.1666666666666667 0.07142857142857142 0  0.2222222222222222 0.07142857142857142 0  0.2777777777777778 0.07142857142857142 0  0.3333333333333333 0.07142857142857142 0  0.3888888888888889 0.07142857142857142 0  0.4444444444444444 0.07142857142857142 0  0.5 0.07142857142857142 0  0.5555555555555556 0.07142857142857142 0  0.6111111111111112 0.07142857142857142 0  0.6666666666666666 0.07142857142857142 0  0.7222222222222222 0.07142857142857142 0  0.7777777777777778 0.07142857142857142 0  0.8333333333333334 0.07142857142857142 0  0.8888888888888888 0.07142857142857142 0  0.9444444444444444 0.07142857142857142 0  1 0.07142857142857142 0  0 0.08571428571428573 0  0.05555555555555555 0.08571428571428573 0  0.1111111111111111 0.08571428571428573 0  0.1666666666666667 0.08571428571428573 0  0.2222222222222222 0.08571428571428573 0  0.2777777777777778 0.08571428571428573 0  0.3333333333333333 0.08571428571428573 0  0.3888888888888889 0.08571428571428573 0  0.4444444444444444 0.08571428571428573 0  0.5 0.08571428571428573 0  0.5555555555555556 0.08571428571428573 0  0.6111111111111112 0.08571428571428573 0  0.6666666666666666 0.08571428571428573 0  0.7222222222222222 0.08571428571428573 0  0.7777777777777778 0.08571428571428573 0  0.8333333333333334 0.08571428571428573 0  0.8888888888888888 0.08571428571428573 0  0.9444444444444444 0.08571428571428573 0  1 0.08571428571428573 0  0 0.1 0  0.05555555555555555 0.1 0  0.1111111111111111 0.1 0  0.1666666666666667 0.1 0  0.2222222222222222 0.1 0  0.2777777777777778 0.1 0  0.3333333333333333 0.1 0  0.3888888888888889 0.1 0  0.4444444444444444 0.1 0  0.5 0.1 0  0.5555555555555556 0.1 0  0.6111111111111112 0.1 0  0.6666666666666666 0.1 0  0.7222222222222222 0.1 0  0.7777777777777778 0.1 0  0.8333333333333334 0.1 0  0.8888888888888888 0.1 0  0.9444444444444444 0.1 0  1 0.1 0  0 0 0.01  0.05555555555555555 0 0.01  0.1111111111111111 0 0.01  0.1666666666666667 0 0.01  0.2222222222222222 0 0.01  0.2777777777777778 0 0.01  0.3333333333333333 0 0.01  0.3888888888888889 0 0.01  0.4444444444444444 0 0.01  0.5 0 0.01  0.5555555555555556 0 0.01  0.6111111111111112 0 0.01  0.6666666666666666 0 0.01  0.7222222222222222 0 0.01  0.7777777777777778 0 0.01  0.8333333333333334 0 0.01  0.8888888888888888 0 0.01  0.9444444444444444 0 0.01  1 0 0.01  0 0.01428571428571429 0.01  0.05555555555555555 0.01428571428571429 0.01  0.1111111111111111 0.01428571428571429 0.01  0.1666666666666667 0.01428571428571429 0.01  0.2222222222222222 0.01428571428571429 0.01  0.2777777777777778 0.01428571428571429 0.01  0.3333333333333333 0.01428571428571429 0.01  0.3888888888888889 0.01428571428571429 0.01  0.4444444444444444 0.01428571428571429 0.01  0.5 0.01428571428571429 0.01  0.5555555555555556 0.01428571428571429 0.01  0.6111111111111112 0.01428571428571429 0.01  0.6666666666666666 0.01428571428571429 0.01  0.7222222222222222 0.01428571428571429 0.01  0.7777777777777778 0.01428571428571429 0.01  0.8333333333333334 0.01428571428571429 0.01  0.8888888888888888 0.01428571428571429 0.01  0.9444444444444444 0.01428571428571429 0.01  1 0.01428571428571429 0.01  0 0.02857142857142857 0.01  0.05555555555555555 0.02857142857142857 0.01  0.1111111111111111 0.02857142857142857 0.01  0.1666666666666667 0.02857142857142857 0.01  0.2222222222222222 0.02857142857142857 0.01  0.2777777777777778 0.02857142857142857 0.01  0.3333333333333333 0.02857142857142857 0.01  0.3888888888888889 0.02857142857142857 0.01  0.4444444444444444 0.02857142857142857 0.01  0.5 0.02857142857142857 0.01  0.5555555555555556 0.02857142857142857 0.01  0.6111111111111112 0.02857142857142857 0.01  0.6666666666666666 0.02857142857142857 0.01  0.7222222222222222 0.02857142857142857 0.01  0.7777777777777778 0.02857142857142857 0.01  0.8333333333333334 0.02857142857142857 0.01  0.8888888888888888 0.02857142857142857 0.01  0.9444444444444444 0.02857142857142857 0.01  1 0.02857142857142857 0.01  0 0.04285714285714286 0.01  0.05555555555555555 0.04285714285714286 0.01  0.1111111111111111 0.04285714285714286 0.01  0.1666666666666667 0.04285714285714286 0.01  0.2222222222222222 0.04285714285714286 0.01  0.2777777777777778 0.04285714285714286 0.01  0.3333333333333333 0.04285714285714286 0.01  0.3888888888888889 0.04285714285714286 0.01  0.4444444444444444 0.04285714285714286 0.01  0.5 0.04285714285714286 0.01  0.5555555555555556 0.04285714285714286 0.01  0.6111111111111112 0.04285714285714286 0.01  0.6666666666666666 0.04285714285714286 0.01  0.7222222222222222 0.04285714285714286 0.01  0.7777777777777778 0.04285714285714286 0.01  0.8333333333333334 0.04285714285714286 0.01  0.8888888888888888 0.04285714285714286 0.01  0.9444444444444444 0.04285714285714286 0.01  1 0.04285714285714286 0.01  0 0.05714285714285715 0.01  0.05555555555555555 0.05714285714285715 0.01  0.1111111111111111 0.05714285714285715 0.01  0.1666666666666667 0.05714285714285715 0.01  0.2222222222222222 0.05714285714285715 0.01  0.2777777777777778 0.05714285714285715 0.01  0.3333333333333333 0.05714285714285715 0.01  0.3888888888888889 0.05714285714285715 0.01  0.4444444444444444 0.05714285714285715 0.01  0.5 0.05714285714285715 0.01  0.5555555555555556 0.05714285714285715 0.01  0.6111111111111112 0.05714285714285715 0.01  0.6666666666666666 0.05714285714285715 0.01  0.7222222222222222 0.05714285714285715 0.01  0.7777777777777778 0.05714285714285715 0.01  0.8333333333333334 0.05714285714285715 0.01  0.8888888888888888 0.05714285714285715 0.01  0.9444444444444444 0.05714285714285715 0.01  1 0.05714285714285715 0.01  0 0.07142857142857142 0.01  0.05555555555555555 0.07142857142857142 0.01  0.1111111111111111 0.07142857142857142 0.01  0.1666666666666667 0.07142857142857142 0.01  0.2222222222222222 0.07142857142857142 0.01  0.2777777777777778 0.07142857142857142 0.01  0.3333333333333333 0.07142857142857142 0.01  0.3888888888888889 0.07142857142857142 0.01  0.4444444444444444 0.07142857142857142 0.01  0.5 0.07142857142857142 0.01  0.5555555555555556 0.07142857142857142 0.01  0.6111111111111112 0.07142857142857142 0.01  0.6666666666666666 0.07142857142857142 0.01  0.7222222222222222 0.07142857142857142 0.01  0.7777777777777778 0.07142857142857142 0.01  0.8333333333333334 0.07142857142857142 0.01  0.8888888888888888 0.07142857142857142 0.01  
[...]
<PointData  Vectors="f_36"> 
<DataArray  type="Float64"  Name="f_36"  NumberOfComponents="3" format="ascii">0.0000000000000000e+00 0.0000000000000000e+00 0.0000000000000000e+00  -1.5994129255278663e-03 1.3779150502115024e-03 -2.4690963823243480e-03  -1.7396177840283502e-03 3.8787880928298794e-03 -1.2519456297011372e-02  -6.3791599032780757e-04 5.2075616298209266e-03 -1.6803205754196662e-02  -1.9945195346782855e-04 5.6310238075022818e-03 -1.7805958000476928e-02  -1.3348080080057435e-04 5.8400718306894795e-03 -1.8459993203273958e-02  -1.0822261662792635e-04 5.9662882517967667e-03 -1.8887392046152810e-02  -1.1268758241191020e-04 6.0822557996890562e-03 -1.9326408715606157e-02  -1.1867410149893858e-04 6.2010471499819291e-03 -1.9784133298502753e-02  -1.2517247479123207e-04 6.3247820435054234e-03 -2.0268365498687827e-02  -1.3049861850225033e-04 6.4537741738846452e-03 -2.0775236938523650e-02  -1.3547599892777703e-04 6.5874347714925474e-03 -2.1301791778677262e-02  -1.3761332818862254e-04 6.7255248558243516e-03 -2.1843477464237183e-02  -1.4657101400318892e-04 6.8741527650159383e-03 -2.2401514573300241e-02  -1.4628337717276409e-04 7.0358096798366051e-03 -2.3016625911861259e-02  -3.0286048900755186e-04 7.3133304821098328e-03 -2.3560054981519200e-02  -3.4106320198268108e-04 7.8828860876919964e-03 -2.5462998760797953e-02  8.9443651248234158e-04 8.0352836796663864e-03 -2.7210948254226101e-02  2.0107355866045883e-03 8.1630839614831117e-03 -2.3407304159322091e-02  0.0000000000000000e+00 0.0000000000000000e+00 0.0000000000000000e+00  -1.3231789515134355e-03 1.1770800650082744e-03 -1.1376351317307822e-03  -1.7697043189956463e-03 3.4881840992053467e-03 -8.6281271649779195e-03  -6.9907446900891270e-04 4.8228713715936337e-03 -1.1835015428110329e-02  -1.9159585421972664e-04 5.2560355448268148e-03 -1.2414631438405474e-02  -1.3297671282799681e-04 5.4583322002254306e-03 -1.2871230197028254e-02  -1.0584356386201121e-04 5.5775654428679745e-03 -1.3189378892768720e-02  -1.0987441916344903e-04 5.6826209444993132e-03 -1.3523535546943162e-02  -1.1573298359784928e-04 5.7900062768461774e-03 -1.3876639820312760e-02  -1.2195188230056670e-04 5.9018265100387463e-03 -1.4250690128641002e-02  -1.2715361426113330e-04 6.0185798758380224e-03 -1.4642859730183909e-02  -1.3175764707228912e-04 6.1397568415240793e-03 -1.5049722463599669e-02  -1.3447733489362288e-04 6.2645646625515304e-03 -1.5468838792960259e-02  -1.4177627465765998e-04 6.3985754991827404e-03 -1.5892151511054501e-02  -1.4288640237363769e-04 6.5406705824332225e-03 -1.6362739359341218e-02  -2.5880680641239377e-04 6.7695156802417564e-03 -1.6679472164063989e-02  -3.7802311981197887e-04 7.2799089551013789e-03 -1.8058005905191816e-02  5.1280499413320290e-04 7.4815928496477693e-03 -1.9821138169747208e-02  1.9070452667864488e-03 7.8402965530458470e-03 -1.7128678209707593e-02  0.0000000000000000e+00 0.0000000000000000e+00 0.0000000000000000e+00  -7.3460380022323448e-04 6.8856162063694177e-04 -1.8708908979522370e-04  -1.1339025470310830e-03 2.3233618311935206e-03 -3.9766685094633344e-03  -4.9204799193845901e-04 3.3099397568310510e-03 -5.7030952332606582e-03  -1.3362337602324735e-04 3.6069819181197061e-03 -5.9800258069559629e-03  -1.0097361797557553e-04 3.7346644196564411e-03 -6.2470649541012191e-03  -8.7310471023216215e-05 3.8107551357337600e-03 -6.4705041324911623e-03  -9.1227769534392181e-05 3.8767776030598699e-03 -6.7104404442825810e-03  -9.6728545757393609e-05 3.9444412702289338e-03 -6.9678834974259991e-03  -1.0187102795591055e-04 4.0150929923410605e-03 -7.2409784753033803e-03  -1.0622982291375261e-04 4.0889820708163932e-03 -7.5275994059792297e-03  -1.0979195295938467e-04 4.1657796674958013e-03 -7.8246413429172035e-03  -1.1237200293360654e-04 4.2445365294118183e-03 -8.1309038507215298e-03  -1.1656243229063615e-04 4.3284024015964812e-03 -8.4372241628163525e-03  -1.1831190667089383e-04 4.4145589387200659e-03 -8.7734583284575229e-03  -1.7671445785439929e-04 4.5382967018109295e-03 -8.9930479312984018e-03  -2.7784250793406779e-04 4.8837213911004929e-03 -9.7192661200493653e-03  1.2244235277433373e-04 5.0589393019034529e-03 -1.0971956383327807e-02  1.5232752842334616e-03 5.6964772755024352e-03 -9.7259822369289792e-03  0.0000000000000000e+00 0.0000000000000000e+00 0.0000000000000000e+00  -1.2536808379692795e-05 8.1810733141245768e-07 -1.8528250312700613e-05  -2.3854012088674380e-05 2.4979284593648339e-06 -6.9605418622843850e-05  -3.3972708226216760e-05 5.0998799446822014e-06 -1.5077356405327058e-04  -4.2911422908385567e-05 8.5386481419145558e-06 -2.5864394749416095e-04  -5.0734072822062703e-05 1.2751215120395242e-05 -3.9000374511489604e-04  -5.7506723990303582e-05 1.7670107826098692e-05 -5.4181930054401277e-04  -6.3296784959195773e-05 2.3225330462296567e-05 -7.1124121132842757e-04  -6.8173275299211283e-05 2.9345086127079119e-05 -8.9560853650023952e-04  -7.2207097403682594e-05 3.5956752621838989e-05 -1.0924541615165621e-03  -7.5471208361786032e-05 4.2988037821185029e-05 -1.2995107218544087e-03  -7.8040743056456891e-05 5.0368189164866872e-05 -1.5147169391217302e-03  -7.9993110451713955e-05 5.8029286202369790e-05 -1.7362242922763194e-03  -8.1408072456261386e-05 6.5907627802590544e-05 -1.9624039489749387e-03  -8.2367752487048318e-05 7.3945103778260302e-05 -2.1918538959741891e-03  -8.2956802882482202e-05 8.2090696989621653e-05 -2.4234059079666155e-03  -8.3261495850942067e-05 9.0302504801129503e-05 -2.6561340709268747e-03  -8.3371880564060645e-05 9.8547394861029687e-05 -2.8893545217918686e-03  -8.3389828507007965e-05 1.0680440295396974e-04 -3.1226482268823614e-03  0.0000000000000000e+00 0.0000000000000000e+00 0.0000000000000000e+00  -1.1716605902627756e-05 1.4928975689696928e-06 -1.8335804977695676e-05  -2.3388537312079480e-05 3.1067738816937861e-06 -6.9331189882129325e-05  -3.3849562279214529e-05 5.6414067216370679e-06 -1.5046699796682228e-04  -4.3105485058116050e-05 9.0138249294012557e-06 -2.5830847673302161e-04  -5.1221893428762500e-05 1.3163787921244226e-05 -3.8964248025663762e-04  -5.8264143432329941e-05 1.8023953021389690e-05 -5.4143499234920512e-04  -6.4298958301916323e-05 2.3524410995118012e-05 -7.1083651735630445e-04  -6.9394854227290459e-05 2.9593471172041263e-05 -8.9518599835152054e-04  -7.3622488795441481e-05 3.6158635764938553e-05 -1.0920161905813794e-03  -7.7054864414703402e-05 4.3147746750438983e-05 -1.2990595771598344e-03  -7.9767473923658791e-05 5.0490192846646529e-05 -1.5142547069660144e-03  -8.1838420508704963e-05 5.8118199831348254e-05 -1.7357528620938348e-03  -8.3348511313208776e-05 6.5968213237843062e-05 -1.9619249929691222e-03  -8.4381279334423502e-05 7.3982277309141562e-05 -2.1913688322427113e-03  -8.5023223645490489e-05 8.2109479731737201e-05 -2.4229158571497929e-03  -8.5362907265977908e-05 9.0307931243822331e-05 -2.6556398273834781e-03  -8.5492112716294307e-05 9.8545204341440903e-05 -2.8888562997036885e-03  -8.5514818730894070e-05 1.0679997945118290e-04 -3.1221458059449243e-03  0.0000000000000000e+00 0.0000000000000000e+00 0.0000000000000000e+00  -9.1827642124162989e-04 -7.4157065366580214e-04 -8.2187701086377195e-04  -1.0263506492090276e-03 -2.4778121048868169e-03 -5.0582455776393351e-03  -3.9069504952126782e-04 -3.7180666288901894e-03 -6.2858104201606079e-03  -1.3749162211494498e-04 -4.0984928865621722e-03 -6.5190607973265062e-03  -1.0039133251244943e-04 -4.2192648214405678e-03 -6.7786591951616805e-03  -9.3366415729198205e-05 -4.2829647676096323e-03 -6.9925371021015469e-03  -1.0007098666049802e-04 -4.3314272914564888e-03 -7.2348641230046392e-03  -1.0676996101640990e-04 -4.3790122392994360e-03 -7.4940043811578226e-03  -1.1289541225013015e-04 -4.4283654802419470e-03 -7.7702992303361248e-03  -1.1781923991866052e-04 -4.4797649855937592e-03 -8.0600598073792482e-03  -1.2201644938624185e-04 -4.5330418839572301e-03 -8.3611113229675391e-03  -1.2432104906120466e-04 -4.5884011762727731e-03 -8.6701062076284252e-03  -1.3032326918087540e-04 -4.6474283779768004e-03 -8.9856746694680686e-03  -1.3079610496160448e-04 -4.7129478477850100e-03 -9.3243624450373257e-03  -1.9637724454567881e-04 -4.8108096286802087e-03 -9.5984010516807720e-03  -2.6329620760353223e-04 -5.1591344116995400e-03 -1.0335234462323203e-02  2.0969601189135779e-04 -5.6773094016239652e-03 -1.1199540623929314e-02  1.0438308940315915e-03 -6.1580856868541541e-03 -9.8229773725514828e-03  0.0000000000000000e+00 0.0000000000000000e+00 0.0000000000000000e+00  -1.4256167779678958e-03 -8.7367667677657585e-04 -1.8956666778837019e-03  -1.7258571280402185e-03 -3.1871171759514081e-03 -9.5439816230889901e-03  -6.3053386648179502e-04 -5.0558814574357029e-03 -1.2361116800289127e-02  -1.8345020048912648e-04 -5.7190127234471267e-03 -1.2898519881370741e-02  -1.3686057576874894e-04 -5.9307925411499485e-03 -1.3346556051210223e-02  -1.1902663587302407e-04 -6.0380115137095526e-03 -1.3659835119559363e-02  -1.2793201453007022e-04 -6.1166047222693714e-03 -1.3999471787877317e-02  -1.3614814674891347e-04 -6.1919018479767362e-03 -1.4357947230638893e-02  -1.4409215619122482e-04 -6.2698100524955051e-03 -1.4739300916542686e-02  -1.5046673991726784e-04 -6.3511094380538889e-03 -1.5139448770559791e-02  -1.5595697498702518e-04 -6.4355544313422375e-03 -1.5555224859433225e-02  -1.5899305050639530e-04 -6.5237603087106855e-03 -1.5984148728079649e-02  -1.6741986111960052e-04 -6.6172679222739044e-03 -1.6421309226837880e-02  -1.6858595211461332e-04 -6.7209593710190283e-03 -1.6908131543043901e-02  -2.5776225996937922e-04 -6.8663085047799581e-03 -1.7294208328663203e-02  -3.6406960740013145e-04 -7.3928034691282162e-03 -1.8599977025165533e-02  4.1290745844275789e-04 -8.3550976883272135e-03 -2.0399430601384428e-02  1.3935258784827514e-03 -9.4133552526348748e-03 -1.7616736840312799e-02  0.0000000000000000e+00 0.0000000000000000e+00 0.0000000000000000e+00  -1.3430415536016449e-03 -7.8669723945296683e-04 -2.6829925059860486e-03  -1.9411386643997464e-03 -3.2119802457841497e-03 -1.2525833110783518e-02  -7.0425456955281276e-04 -5.2736917371881339e-03 -1.6940992174185650e-02  -1.6589233972753842e-04 -6.0701828784092667e-03 -1.8010820671228285e-02  -1.4425995289251803e-04 -6.3370890846964501e-03 -1.8684524860086888e-02  -1.2454917312643997e-04 -6.4651748778809517e-03 -1.9114108953199066e-02  -1.3552061594049742e-04 -6.5551153305670167e-03 -1.9547839768575583e-02  -1.4482704341839785e-04 -6.6390619185056924e-03 -1.9999985986014299e-02  -1.5354981836068898e-04 -6.7253926759114051e-03 -2.0478639975205239e-02  -1.6062692835530640e-04 -6.8154462564592143e-03 -2.0981106581508344e-02  -1.6649394933684406e-04 -6.9089879912425014e-03 -2.1503109496944998e-02  -1.7010139209064443e-04 -7.0069606996826508e-03 -2.2043949962043514e-02  -1.7713099675478194e-04 -7.1099488972933295e-03 -2.2594760745042585e-02  -1.7874213093804840e-04 -7.2256177290531852e-03 -2.3219181677478773e-02  -2.2789541606753631e-04 -7.3810619320544193e-03 -2.3777331018857366e-02  -3.3199574137404616e-04 -7.9470272717683237e-03 -2.5500793857584501e-02  4.8826296702920535e-04 -9.0572430608303525e-03 -2.8252711388449956e-02  1.6262313042050799e-03 -1.0491899359757587e-02 -2.5722735036097882e-02  0.0000000000000000e+00 0.0000000000000000e+00 0.0000000000000000e+00  -6.9045370691016988e-04 4.7048309612843242e-04 -2.2845198161748864e-03  -8.2056046581975887e-04 1.5618669227776953e-03 -1.2314008423983065e-02  -3.1579808630766674e-04 2.2083891899597574e-03 -1.6649773921019573e-02  -8.3569802436043027e-05 2.3860324019137733e-03 -1.7630575581277046e-02  -5.7620611263496668e-05 2.4794822115305030e-03 -1.8272863441849401e-02  -4.4581271484643731e-05 2.5407404673218909e-03 -1.8696962093560102e-02  -4.6193247859812966e-05 2.5951076197151105e-03 -1.9131266015476975e-02  -4.8665571457280357e-05 2.6521473339086252e-03 -1.9585038889927128e-02  -5.1431641297697051e-05 2.7112102968648525e-03 -2.0065009528031908e-02  -5.3636915904862301e-05 2.7728368404985842e-03 -2.0567530815768422e-02  -5.6028322481005671e-05 2.8366517053476465e-03 -2.1089565458962536e-02  -5.6247113111963500e-05 2.9020223377637434e-03 -2.1626644225519517e-02  -6.1119385564213039e-05 2.9722663421674002e-03 -2.2178601909591675e-02  -6.4985640970078394e-05 3.0458261884204578e-03 -2.2787491595449755e-02  -1.0256412724239451e-04 3.1533998076687538e-03 -2.3312539455236550e-02  -7.7094362453526222e-05 3.4424697015215892e-03 -2.5210046163226845e-02  6.2432576707023362e-04 3.6562014494030248e-03 -2.7011134612891449e-02  1.3640953634537552e-03 4.0066496333091006e-03 -2.3252717667623962e-02  0.0000000000000000e+00 0.0000000000000000e+00 0.0000000000000000e+00  -6.2238897767782702e-04 4.1689658543204479e-04 -1.0031263600190758e-03  -8.7750552616867991e-04 1.3379175717657232e-03 -8.4839801721100800e-03  -3.6992644637321977e-04 1.9321684458415984e-03 -1.1737078048204173e-02  -8.6807915398232378e-05 2.1200668515069954e-03 -1.2277066806962512e-02  -6.1800148150607895e-05 2.2107747182402338e-03 -1.2713215060123890e-02  -4.8352208210212859e-05 2.2681183468019881e-03 -1.3027712215712962e-02  -4.9479191272966566e-05 2.3176970730571199e-03 -1.3357841723312865e-02  -5.2272265071003121e-05 2.3692669021894322e-03 -1.3708253620110909e-02  -5.5055431412344617e-05 2.4227225023207171e-03 -1.4079521270092550e-02  -5.7439837073439376e-05 2.4785302050502177e-03 -1.4468965469857577e-02  -5.9638046510217939e-05 2.5364583691746307e-03 -1.4873013761077913e-02  -6.0756846282994439e-05 2.5956938954834587e-03 -1.5289411874165031e-02  -6.4111400447409969e-05 2.6596887661492581e-03 -1.5708773947303151e-02  -6.8007507171357050e-05 2.7263844774945765e-03 -1.6176291275148632e-02  -1.0374502628269490e-04 2.8187843072008754e-03 -1.6477677912724160e-02  -1.3096083601591433e-04 3.0555448410407426e-03 -1.7840202644744341e-02  3.9304298609613110e-04 3.2226120209688457e-03 -1.9661314731881593e-02  1.2675548586985495e-03 3.6398114208236196e-03 -1.7055132262098028e-02  0.0000000000000000e+00 0.0000000000000000e+00 0.0000000000000000e+00  -3.6301943906386547e-04 2.5281979141885243e-04 -5.7009461369174719e-05  -5.8269395942256495e-04 8.2441290206112800e-04 -3.7569241548949749e-03  -2.7506643700307140e-04 1.2043745195878617e-03 -5.4545714431078448e-03  -6.4663084936562680e-05 1.3350334822762875e-03 -5.6681897036588401e-03  -4.8170765008007044e-05 1.3956503235684539e-03 -5.9006321159162491e-03  -4.2080577045320005e-05 1.4334250080999091e-03 -6.1124661624377746e-03  -4.3102045196109098e-05 1.4663155098021225e-03 -6.3427368772428034e-03  -4.5887515779537505e-05 1.5002790555037324e-03 -6.5917573714265928e-03  -4.8229940874086929e-05 1.5357249184225266e-03 -6.8561731730710776e-03  -5.0308236114867004e-05 1.5728403288351896e-03 -7.1338452440794465e-03  -5.1987705250286802e-05 1.6115150283472722e-03 -7.4215861993765023e-03  -5.3261656088894487e-05 1.6510888995033321e-03 -7.7182734782834410e-03  -5.5136042855092273e-05 1.6936654707606308e-03 -8.0137827583232138e-03  -5.7380040449579324e-05 1.7380611049787060e-03 -8.3386593370185606e-03  -7.7953285731579758e-05 1.7942348817953197e-03 -8.5356805931634857e-03  -1.1645808582024937e-04 1.9358744975407304e-03 -9.2299561803413591e-03  1.2804307609452578e-04 2.0256422764737222e-03 -1.0505629331263833e-02  9.4682388765591531e-04 2.4226933647744390e-03 -9.3030284251122853e-03  0.0000000000000000e+00 0.0000000000000000e+00 0.0000000000000000e+00  -5.9312581652479478e-06 7.4594511840824119e-07 -1.8008791678576957e-05  -1.1628996540654009e-05 2.4048233213045677e-06 -6.9130693016840566e-05  -1.6679031378664641e-05 4.9708820513831896e-06 -1.5034872860801986e-04  -2.1138415299849814e-05 8.3786719038840646e-06 -2.5826887296433464e-04  -2.5041394154487545e-05 1.2562922707398090e-05 -3.8967583789273959e-04  -2.8421371020970970e-05 1.7456099227353473e-05 -5.4153578667853969e-04  -3.1312153951970619e-05 2.2988138426470266e-05 -7.1099921947418874e-04  -3.3748290751296624e-05 2.9087179022446022e-05 -8.9540511542099573e-04  -3.5765190035828017e-05 3.5680526157160441e-05 -1.0922862730285228e-03  -3.7399208916402541e-05 4.2695802325222851e-05 -1.2993752353117616e-03  -3.8687709298557596e-05 5.0062155929216692e-05 -1.5146106263251311e-03  -3.9669101163355913e-05 5.7711552134531607e-05 -1.7361438231184947e-03  -4.0382883344692661e-05 6.5580159209615373e-05 -1.9623458882843479e-03  -4.0869642053306013e-05 7.3609711274768717e-05 -2.1918147008906136e-03  -4.1171118305412399e-05 8.1749004544259140e-05 -2.4233819149704302e-03  -4.1329936458764182e-05 8.9955858609919750e-05 -2.6561215150401533e-03  -4.1390141352830030e-05 9.8197037691819685e-05 -2.8893493965012878e-03  -4.1400556290659977e-05 1.0645101134819333e-04 -3.1226446868154994e-03  0.0000000000000000e+00 0.0000000000000000e+00 0.0000000000000000e+00  -5.9038860135765858e-06 1.2381149573567391e-06 -1.7715621403240729e-05  -1.1918030152404735e-05 2.8074755903631433e-06 -6.8810576427261338e-05  -1.7221398954799626e-05 5.3257894823153661e-06 -1.5000240257140120e-04  -2.1916330609811898e-05 8.6902912493650199e-06 -2.5789764224228316e-04  -2.6036264229398370e-05 1.2834036905022713e-05 -3.8928221796134734e-04  -2.9613896914822126e-05 1.7689231887530495e-05 -5.4112237309638332e-04  -3.2682429696470412e-05 2.3185825845911922e-05 -7.1056855777216555e-04  -3.5276027110758082e-05 2.9252020489363157e-05 -8.9495963604187051e-04  -3.7429986515789018e-05 3.5815199086415155e-05 -1.0918282700116552e-03  -3.9180852924974905e-05 4.2803069110586161e-05 -1.2989068421462402e-03  -4.0566495818545039e-05 5.0144868649081938e-05 -1.5141337946747550e-03  -4.1626173921810850e-05 5.7772655833697837e-05 -1.7356602978895116e-03  -4.2400589057890072e-05 6.5622693314460343e-05 -1.9618571862996576e-03  -4.2931896317847044e-05 7.3636814223849216e-05 -2.1913220748535881e-03  -4.3263834631146858e-05 8.1763896257940730e-05 -2.4228863045047738e-03  -4.3441347217414739e-05 8.9961797348326662e-05 -2.6556235250357330e-03  -4.3510894041599334e-05 9.8197526812608018e-05 -2.8888492137109098e-03  -4.3524314578605961e-05 1.0644925076454904e-04 -3.1221429239261548e-03  0.0000000000000000e+00 0.0000000000000000e+00 0.0000000000000000e+00  -4.3601796520596325e-04 -2.1248518894747821e-04 -6.7799062180921095e-04  -5.6846799886232187e-04 -7.7961862181807927e-04 -4.6792955191164148e-03  -2.3898788629751018e-04 -1.2457069066124148e-03 -5.6680543877084500e-03  -7.2737332222760226e-05 -1.4007515083768989e-03 -5.7560675759237828e-03  -5.3073449147203708e-05 -1.4381605230113811e-03 -5.9696691174755730e-03  -4.9236705969000416e-05 -1.4547044948744099e-03 -6.1660632077519218e-03  -5.3043719360053845e-05 -1.4653348034451095e-03 -6.3967894701215259e-03  -5.6756039574680653e-05 -1.4745696917856058e-03 -6.6457978391341347e-03  -6.0098235336739719e-05 -1.4839681070842881e-03 -6.9116929175997736e-03  -6.2718803487975960e-05 -1.4935641970431901e-03 -7.1906312181659023e-03  -6.5044084567281247e-05 -1.5033635542234028e-03 -7.4803941831014537e-03  -6.5971775779660505e-05 -1.5137168688014241e-03 -7.7777294251335609e-03  -6.8888518850406156e-05 -1.5247236185193499e-03 -8.0803913325774978e-03  -7.1180153104460729e-05 -1.5378293730413969e-03 -8.4060013681104846e-03  -8.7123192732844670e-05 -1.5626741642933283e-03 -8.6581426547714287e-03  -1.0865325567460205e-04 -1.6772219099319200e-03 -9.3330619287274458e-03  1.1086268777999346e-04 -1.9141905374954998e-03 -1.0112202834942000e-02  7.1052385137245356e-04 -2.2013769538951830e-03 -8.4605705414470874e-03  0.0000000000000000e+00 0.0000000000000000e+00 0.0000000000000000e+00  -6.4949615205724706e-04 -3.0255154340561052e-04 -1.7727031979591938e-03  -8.8798937742151304e-04 -1.2737541712237786e-03 -9.3703113531506330e-03  -3.5073043216463453e-04 -2.1529983098425055e-03 -1.2121170250363560e-02  -8.3015291058056377e-05 -2.4842181888620075e-03 -1.2545089198502083e-02  -6.8458316224518983e-05 -2.5754726437032479e-03 -1.2949778186706168e-02  -6.1170799564910956e-05 -2.6153309658036362e-03 -1.3249628803170968e-02  -6.6762422424378499e-05 -2.6417172760217086e-03 -1.3580467383592719e-02  -7.1546390334288989e-05 -2.6649142400084558e-03 -1.3932326608201522e-02  -7.5862174127821957e-05 -2.6886931348960603e-03 -1.43069533303