<?xml version="1.0"?>
<VTKFile type="UnstructuredGrid"  version="0.1"  >
<UnstructuredGrid>
<Piece  NumberOfPoints="760" NumberOfCells="3024">
<Points>
<DataArray  type="Float64"  NumberOfComponents="3"  format="ascii">0 0 0  0.05555555555555555 0 0  0.1111111111111111 0 0  0.1666666666666667 0 0  0.2222222222222222 0 0  0.2777777777777778 0 0  0.3333333333333333 0 0  0.3888888888888889 0 0  0.4444444444444444 0 0  0.5 0 0  0.5555555555555556 0 0  0.6111111111111112 0 0  0.6666666666666666 0 0  0.7222222222222222 0 0  0.7777777777777778 0 0  0.8333333333333334 0 0  0.8888888888888888 0 0  0.9444444444444444 0 0  1 0 0  0 0.01428571428571429 0  0.05555555555555555 0.01428571428571429 0  0.1111111111111111 0.01428571428571429 0  0.1666666666666667 0.01428571428571429 0  0.2222222222222222 0.01428571428571429 0  0.2777777777777778 0.01428571428571429 0  0.3333333333333333 0.01428571428571429 0  0.3888888888888889 0.01428571428571429 0  0.4444444444444444 0.01428571428571429 0  0.5 0.01428571428571429 0  0.5555555555555556 0.01428571428571429 0  0.6111111111111112 0.01428571428571429 0  0.6666666666666666 0.01428571428571429 0  0.7222222222222222 0.01428571428571429 0  0.7777777777777778 0.01428571428571429 0  0.8333333333333334 0.01428571428571429 0  0.8888888888888888 0.01428571428571429 0  0.9444444444444444 0.01428571428571429 0  1 0.01428571428571429 0  0 0.02857142857142857 0  0.05555555555555555 0.02857142857142857 0  0.1111111111111111 0.02857142857142857 0  0.1666666666666667 0.02857142857142857 0  0.2222222222222222 0.02857142857142857 0  0.2777777777777778 0.02857142857142857 0  0.3333333333333333 0.02857142857142857 0  0.3888888888888889 0.02857142857142857 0  0.4444444444444444 0.02857142857142857 0  0.5 0.02857142857142857 0  0.5555555555555556 0.02857142857142857 0  0.6111111111111112 0.02857142857142857 0  0.6666666666666666 0.02857142857142857 0  0.7222222222222222 0.02857142857142857 0  0.7777777777777778 0.02857142857142857 0  0.8333333333333334 0.02857142857142857 0  0.8888888888888888 0.02857142857142857 0  0.9444444444444444 0.02857142857142857 0  1 0.02857142857142857 0  0 0.04285714285714286 0  0.05555555555555555 0.04285714285714286 0  0.1111111111111111 0.04285714285714286 0  0.1666666666666667 0.04285714285714286 0  0.2222222222222222 0.04285714285714286 0  0.2777777777777778 0.04285714285714286 0  0.3333333333333333 0.04285714285714286 0  0.3888888888888889 0.04285714285714286 0  0.4444444444444444 0.04285714285714286 0  0.5 0.04285714285714286 0  0.5555555555555556 0.04285714285714286 0  0.6111111111111112 0.04285714285714286 0  0.6666666666666666 0.04285714285714286 0  0.7222222222222222 0.04285714285714286 0  0.7777777777777778 0.04285714285714286 0  0.8333333333333334 0.04285714285714286 0  0.8888888888888888 0.04285714285714286 0  0.9444444444444444 0.04285714285714286 0  1 0.04285714285714286 0  0 0.05714285714285715 0  0.05555555555555555 0.05714285714285715 0  0.1111111111111111 0.05714285714285715 0  0.1666666666666667 0.05714285714285715 0  0.2222222222222222 0.05714285714285715 0  0.2777777777777778 0.05714285714285715 0  0.3333333333333333 0.05714285714285715 0  0.3888888888888889 0.05714285714285715 0  0.4444444444444444 0.05714285714285715 0  0.5 0.05714285714285715 0  0.5555555555555556 0.05714285714285715 0  0.6111111111111112 0.05714285714285715 0  0.6666666666666666 0.05714285714285715 0  0.7222222222222222 0.05714285714285715 0  0.7777777777777778 0.05714285714285715 0  0.8333333333333334 0.05714285714285715 0  0.8888888888888888 0.05714285714285715 0  0.9444444444444444 0.05714285714285715 0  1 0.05714285714285715 0  0 0.07142857142857142 0  0.05555555555555555 0.07142857142857142 0  0.1111111111111111 0.07142857142857142 0  0.1666666666666667 0.07142857142857142 0  0.2222222222222222 0.07142857142857142 0  0.2777777777777778 0.07142857142857142 0  0.3333333333333333 0.07142857142857142 0  0.3888888888888889 0.07142857142857142 0  0.4444444444444444 0.07142857142857142 0  0.5 0.07142857142857142 0  0.5555555555555556 0.07142857142857142 0  0.6111111111111112 0.07142857142857142 0  0.6666666666666666 0.07142857142857142 0  0.7222222222222222 0.07142857142857142 0  0.7777777777777778 0.07142857142857142 0  0.8333333333333334 0.07142857142857142 0  0.8888888888888888 0.07142857142857142 0  0.9444444444444444 0.07142857142857142 0  1 0.07142857142857142 0  0 0.08571428571428573 0  0.05555555555555555 0.08571428571428573 0  0.1111111111111111 0.08571428571428573 0  0.1666666666666667 0.08571428571428573 0  0.2222222222222222 0.08571428571428573 0  0.2777777777777778 0.08571428571428573 0  0.3333333333333333 0.08571428571428573 0  0.3888888888888889 0.08571428571428573 0  0.4444444444444444 0.08571428571428573 0  0.5 0.08571428571428573 0  0.5555555555555556 0.08571428571428573 0  0.6111111111111112 0.08571428571428573 0  0.6666666666666666 0.08571428571428573 0  0.7222222222222222 0.08571428571428573 0  0.7777777777777778 0.08571428571428573 0  0.8333333333333334 0.08571428571428573 0  0.8888888888888888 0.08571428571428573 0  0.9444444444444444 0.08571428571428573 0  1 0.08571428571428573 0  0 0.1 0  0.05555555555555555 0.1 0  0.1111111111111111 0.1 0  0.1666666666666667 0.1 0  0.2222222222222222 0.1 0  0.2777777777777778 0.1 0  0.3333333333333333 0.1 0  0.3888888888888889 0.1 0  0.4444444444444444 0.1 0  0.5 0.1 0  0.5555555555555556 0.1 0  0.6111111111111112 0.1 0  0.6666666666666666 0.1 0  0.7222222222222222 0.1 0  0.7777777777777778 0.1 0  0.8333333333333334 0.1 0  0.8888888888888888 0.1 0  0.9444444444444444 0.1 0  1 0.1 0  0 0 0.01  0.05555555555555555 0 0.01  0.1111111111111111 0 0.01  0.1666666666666667 0 0.01  0.2222222222222222 0 0.01  0.2777777777777778 0 0.01  0.3333333333333333 0 0.01  0.3888888888888889 0 0.01  0.4444444444444444 0 0.01  0.5 0 0.01  0.5555555555555556 0 0.01  0.6111111111111112 0 0.01  0.6666666666666666 0 0.01  0.7222222222222222 0 0.01  0.7777777777777778 0 0.01  0.8333333333333334 0 0.01  0.8888888888888888 0 0.01  0.9444444444444444 0 0.01  1 0 0.01  0 0.01428571428571429 0.01  0.05555555555555555 0.01428571428571429 0.01  0.1111111111111111 0.01428571428571429 0.01  0.1666666666666667 0.01428571428571429 0.01  0.2222222222222222 0.01428571428571429 0.01  0.2777777777777778 0.01428571428571429 0.01  0.3333333333333333 0.01428571428571429 0.01  0.3888888888888889 0.01428571428571429 0.01  0.4444444444444444 0.01428571428571429 0.01  0.5 0.01428571428571429 0.01  0.5555555555555556 0.01428571428571429 0.01  0.6111111111111112 0.01428571428571429 0.01  0.6666666666666666 0.01428571428571429 0.01  0.7222222222222222 0.01428571428571429 0.01  0.7777777777777778 0.01428571428571429 0.01  0.8333333333333334 0.01428571428571429 0.01  0.8888888888888888 0.01428571428571429 0.01  0.9444444444444444 0.01428571428571429 0.01  1 0.01428571428571429 0.01  0 0.02857142857142857 0.01  0.05555555555555555 0.02857142857142857 0.01  0.1111111111111111 0.02857142857142857 0.01  0.1666666666666667 0.02857142857142857 0.01  0.2222222222222222 0.02857142857142857 0.01  0.2777777777777778 0.02857142857142857 0.01  0.3333333333333333 0.02857142857142857 0.01  0.3888888888888889 0.02857142857142857 0.01  0.4444444444444444 0.02857142857142857 0.01  0.5 0.02857142857142857 0.01  0.5555555555555556 0.02857142857142857 0.01  0.6111111111111112 0.02857142857142857 0.01  0.6666666666666666 0.02857142857142857 0.01  0.7222222222222222 0.02857142857142857 0.01  0.7777777777777778 0.02857142857142857 0.01  0.8333333333333334 0.02857142857142857 0.01  0.8888888888888888 0.02857142857142857 0.01  0.9444444444444444 0.02857142857142857 0.01  1 0.02857142857142857 0.01  0 0.04285714285714286 0.01  0.05555555555555555 0.04285714285714286 0.01  0.1111111111111111 0.04285714285714286 0.01  0.1666666666666667 0.04285714285714286 0.01  0.2222222222222222 0.04285714285714286 0.01  0.2777777777777778 0.04285714285714286 0.01  0.3333333333333333 0.04285714285714286 0.01  0.3888888888888889 0.04285714285714286 0.01  0.4444444444444444 0.04285714285714286 0.01  0.5 0.04285714285714286 0.01  0.5555555555555556 0.04285714285714286 0.01  0.6111111111111112 0.04285714285714286 0.01  0.6666666666666666 0.04285714285714286 0.01  0.7222222222222222 0.04285714285714286 0.01  0.7777777777777778 0.04285714285714286 0.01  0.8333333333333334 0.04285714285714286 0.01  0.8888888888888888 0.04285714285714286 0.01  0.9444444444444444 0.04285714285714286 0.01  1 0.04285714285714286 0.01  0 0.05714285714285715 0.01  0.05555555555555555 0.05714285714285715 0.01  0.1111111111111111 0.05714285714285715 0.01  0.1666666666666667 0.05714285714285715 0.01  0.2222222222222222 0.05714285714285715 0.01  0.2777777777777778 0.05714285714285715 0.01  0.3333333333333333 0.05714285714285715 0.01  0.3888888888888889 0.05714285714285715 0.01  0.4444444444444444 0.05714285714285715 0.01  0.5 0.05714285714285715 0.01  0.5555555555555556 0.05714285714285715 0.01  0.6111111111111112 0.05714285714285715 0.01  0.6666666666666666 0.05714285714285715 0.01  0.7222222222222222 0.05714285714285715 0.01  0.7777777777777778 0.05714285714285715 0.01  0.8333333333333334 0.05714285714285715 0.01  0.8888888888888888 0.05714285714285715 0.01  0.9444444444444444 0.05714285714285715 0.01  1 0.05714285714285715 0.01  0 0.07142857142857142 0.01  0.05555555555555555 0.07142857142857142 0.01  0.1111111111111111 0.07142857142857142 0.01  0.1666666666666667 0.07142857142857142 0.01  0.2222222222222222 0.07142857142857142 0.01  0.2777777777777778 0.07142857142857142 0.01  0.3333333333333333 0.07142857142857142 0.01  0.3888888888888889 0.07142857142857142 0.01  0.4444444444444444 0.07142857142857142 0.01  0.5 0.07142857142857142 0.01  0.5555555555555556 0.07142857142857142 0.01  0.6111111111111112 0.07142857142857142 0.01  0.6666666666666666 0.07142857142857142 0.01  0.7222222222222222 0.07142857142857142 0.01  0.7777777777777778 0.07142857142857142 0.01  0.8333333333333334 0.07142857142857142 0.01  0.8888888888888888 0.07142857142857142 0.01  
[...]
<PointData  Vectors="f_36"> 
<DataArray  type="Float64"  Name="f_36"  NumberOfComponents="3" format="ascii">0.0000000000000000e+00 0.0000000000000000e+00 0.0000000000000000e+00  -2.0959639526020833e-03 2.9291708764764414e-03 -7.0354056891477439e-03  -1.8010899872645165e-03 6.0139212623413936e-03 -1.8452185534674745e-02  -5.9546738570537858e-04 7.3638845557243487e-03 -2.2410063381454307e-02  -2.2160927197416281e-04 7.7958698481424490e-03 -2.3528800304463412e-02  -1.4034413914503925e-04 7.9782794475130123e-03 -2.4162619184763555e-02  -1.1971308907049998e-04 8.0776176402868570e-03 -2.4594886730657281e-02  -1.2461814965685427e-04 8.1654572175403825e-03 -2.5036777531163554e-02  -1.3158061077271044e-04 8.2526389998397124e-03 -2.5497174644862834e-02  -1.3876919258147771e-04 8.3430217205563064e-03 -2.5984428806900224e-02  -1.4468225189380595e-04 8.4368120032894886e-03 -2.6494521736669108e-02  -1.4999138413396461e-04 8.5339252718811681e-03 -2.7023696138192749e-02  -1.5302509699770738e-04 8.6344566502609861e-03 -2.7570094868323781e-02  -1.6104032137721481e-04 8.7443378076697102e-03 -2.8127386554737586e-02  -1.6242212680973647e-04 8.8703159121251117e-03 -2.8752137083079901e-02  -2.8878122163061490e-04 9.0887535613369749e-03 -2.9322814457493962e-02  -4.9697554034720901e-04 9.6692396948034835e-03 -3.1023703348894181e-02  5.7011380142419710e-04 1.0092251578972117e-02 -3.3638520073398764e-02  1.6954479756094867e-03 1.0450642239636874e-02 -3.0681584015105023e-02  0.0000000000000000e+00 0.0000000000000000e+00 0.0000000000000000e+00  -1.9048312111086165e-03 2.4832859540386805e-03 -4.2367837861505917e-03  -1.8906045221650449e-03 5.3448964493711393e-03 -1.2689884468519949e-02  -6.4159774516185403e-04 6.7141764288840677e-03 -1.5550081342963233e-02  -2.1027124133537206e-04 7.1594637769669929e-03 -1.6213552262829695e-02  -1.3767409766386114e-04 7.3464862144352631e-03 -1.6678751277231930e-02  -1.1318062998706570e-04 7.4473599803125713e-03 -1.7015783027603454e-02  -1.1810756075581235e-04 7.5342468443013412e-03 -1.7373559395735406e-02  -1.2446949067289605e-04 7.6208416023248009e-03 -1.7750811821813806e-02  -1.3128512818636194e-04 7.7107452131573466e-03 -1.8151298767127892e-02  -1.3693958608724602e-04 7.8043083082637316e-03 -1.8571255180929742e-02  -1.4178567152213953e-04 7.9013594372851405e-03 -1.9006744489889343e-02  -1.4523101592163755e-04 8.0013891527124792e-03 -1.9456487275913655e-02  -1.5151097018085153e-04 8.1093955673651359e-03 -1.9908367682120568e-02  -1.5641888871469140e-04 8.2298100720838967e-03 -2.0408956331914026e-02  -2.4411751424387193e-04 8.4172357220305780e-03 -2.0799564295526367e-02  -4.8795051963969972e-04 8.9256743939796889e-03 -2.1954839188060359e-02  2.1607514765873605e-04 9.3635087754799281e-03 -2.4377858745085430e-02  1.6622888570206060e-03 9.9999318328351360e-03 -2.2517405695324049e-02  0.0000000000000000e+00 0.0000000000000000e+00 0.0000000000000000e+00  -1.1219994544319949e-03 1.5370686297599889e-03 -1.7606166034231916e-03  -1.2432311646965906e-03 3.5238475086929177e-03 -6.1062292430603482e-03  -4.4978487166477644e-04 4.5188496981567756e-03 -7.6357311382956256e-03  -1.4189701758996734e-04 4.8218823609038532e-03 -7.9396292865068722e-03  -1.0561190225337275e-04 4.9474205471247389e-03 -8.2230139793933680e-03  -9.1765639074955119e-05 5.0186423526688085e-03 -8.4641109912309900e-03  -9.6803472421977339e-05 5.0805861001936986e-03 -8.7262653645257243e-03  -1.0244174377592348e-04 5.1434245414326858e-03 -9.0065262698585582e-03  -1.0800771918890522e-04 5.2091223408524913e-03 -9.3043781339631065e-03  -1.1261838425268601e-04 5.2778181324577480e-03 -9.6168262952794781e-03  -1.1636785030004354e-04 5.3492235255573053e-03 -9.9406771183419146e-03  -1.1924357718493393e-04 5.4226535354101333e-03 -1.0274505082133461e-02  -1.2294473292615628e-04 5.5001042145916878e-03 -1.0609644214149921e-02  -1.2773227536128442e-04 5.5841589756958345e-03 -1.0967373192723975e-02  -1.7109643524435613e-04 5.6946459675272249e-03 -1.1258155002015352e-02  -3.3229046984738225e-04 6.0312746466145636e-03 -1.1832942784366781e-02  -6.0090325943871471e-05 6.3686686245169270e-03 -1.3436218905480742e-02  1.4615865217143878e-03 7.3028614191535017e-03 -1.2817646368487021e-02  0.0000000000000000e+00 0.0000000000000000e+00 0.0000000000000000e+00  -1.4673548035941374e-05 1.2704161329681057e-06 -2.1892276017528322e-05  -2.7856814445457638e-05 4.1096441424240982e-06 -8.1968969924175656e-05  -3.9590702899799114e-05 8.5356936974697812e-06 -1.7719062907723611e-04  -4.9909959330200856e-05 1.4399022409293631e-05 -3.0346830210902523e-04  -5.8899533310918308e-05 2.1577113902043962e-05 -4.5694486949328660e-04  -6.6646690807449735e-05 2.9943822156330586e-05 -6.3400253050473058e-04  -7.3239389517794600e-05 3.9371715876376590e-05 -8.3126611358528700e-04  -7.8766456143375144e-05 4.9733047681560421e-05 -1.0456055921269484e-03  -8.3317773831997614e-05 6.0901217442476641e-05 -1.2741394211996464e-03  -8.6984367099705946e-05 7.2752367589408521e-05 -1.5142381866939906e-03  -8.9858454861322699e-05 8.5167103527524667e-05 -1.7635284795613322e-03  -9.2033485234074388e-05 9.8032328001318569e-05 -2.0198969303654602e-03  -9.3604163529849310e-05 1.1124318370139254e-04 -2.2814943540948648e-03  -9.4666431201955467e-05 1.2470506717274696e-04 -2.5467400031246369e-03  -9.5317534253511801e-05 1.3833562651007592e-04 -2.8143255614807932e-03  -9.5655454652439698e-05 1.5206748126485691e-04 -3.0832201527728450e-03  -9.5779709446547901e-05 1.6584914931790196e-04 -3.3526698645646117e-03  -9.5800362263282588e-05 1.7964767232855739e-04 -3.6222083537761195e-03  0.0000000000000000e+00 0.0000000000000000e+00 0.0000000000000000e+00  -1.3874898805986545e-05 2.0607752573177447e-06 -2.1663211182339258e-05  -2.7615362759973684e-05 4.8192786049703411e-06 -8.1635920565540789e-05  -3.9877097562175242e-05 9.1641330104707226e-06 -1.7681230272109853e-04  -5.0681263714739416e-05 1.4947939242172525e-05 -3.0304956407247650e-04  -6.0114992250038564e-05 2.2051457888700419e-05 -4.5649004200098016e-04  -6.8265220238723767e-05 3.0348679122795453e-05 -6.3351549069872565e-04  -7.5219634923975496e-05 3.9712225413726769e-05 -8.3075057637842990e-04  -8.1067089893220785e-05 5.0014414751517729e-05 -1.0450651015149629e-03  -8.5897877001763943e-05 6.1128724412064272e-05 -1.2735773290116692e-03  -8.9803850880397303e-05 7.2931380134075025e-05 -1.5136576276410820e-03  -9.2878514817944122e-05 8.5303074057890035e-05 -1.7629323457387781e-03  -9.5217084067162336e-05 9.8130797964262562e-05 -2.0192878428869358e-03  -9.6916539968038332e-05 1.1130978162829612e-04 -2.2808746346808699e-03  -9.8075615324636498e-05 1.2474551052658785e-04 -2.5461116398003665e-03  -9.8794943976299854e-05 1.3835569032900094e-04 -2.8136901409660060e-03  -9.9176522984647180e-05 1.5207286936500913e-04 -3.0825788478502161e-03  -9.9323721907225402e-05 1.6584601196542698e-04 -3.3520231160711908e-03  -9.9350351362725498e-05 1.7964176732258933e-04 -3.6215560118508473e-03  0.0000000000000000e+00 0.0000000000000000e+00 0.0000000000000000e+00  -1.2738123426157967e-03 -1.5823091974642785e-03 -2.7745576393244024e-03  -1.0956138548782939e-03 -3.7823721022778567e-03 -7.3407056478367264e-03  -3.7073844461585858e-04 -5.0396461139547294e-03 -8.3464710424785080e-03  -1.4919595434963691e-04 -5.3980581233979662e-03 -8.6727553792126325e-03  -1.0451328345587145e-04 -5.5145741625746052e-03 -8.9347482493961870e-03  -1.0035675433290313e-04 -5.5682307114136064e-03 -9.1757068566196733e-03  -1.0717448360637634e-04 -5.6057002197234199e-03 -9.4436521136291428e-03  -1.1451205132815076e-04 -5.6416138659664862e-03 -9.7315337022663290e-03  -1.2102402733973681e-04 -5.6784589665844730e-03 -1.0038276313630004e-02  -1.2628412598440563e-04 -5.7168062914022977e-03 -1.0360184545197770e-02  -1.3071172687741922e-04 -5.7565615045914939e-03 -1.0694297161567050e-02  -1.3345781541919817e-04 -5.7979825809882221e-03 -1.1038367628575929e-02  -1.3868196299946666e-04 -5.8427494100927709e-03 -1.1387253443936428e-02  -1.4164528610279291e-04 -5.8961285028651606e-03 -1.1761772322566451e-02  -1.9375247152295881e-04 -5.9748586335736367e-03 -1.2091488276028461e-02  -3.1392461367131579e-04 -6.2785200335445492e-03 -1.2775671649040385e-02  7.2647944294447931e-05 -6.9564026110504459e-03 -1.3884995471302512e-02  9.8283301471048068e-04 -7.8430647150341641e-03 -1.2784259624282892e-02  0.0000000000000000e+00 0.0000000000000000e+00 0.0000000000000000e+00  -2.0162837384907527e-03 -1.9947617929044030e-03 -5.2359562980222258e-03  -1.8378393051594912e-03 -5.0482611515141286e-03 -1.3724198550453058e-02  -5.7955481895833000e-04 -6.9934596833204814e-03 -1.6212384191125494e-02  -2.0451757301902156e-04 -7.6169941856987760e-03 -1.6865035938774184e-02  -1.4026189487757591e-04 -7.8175771350026107e-03 -1.7309161770568952e-02  -1.2726515612227531e-04 -7.9073472795373294e-03 -1.7644713039463324e-02  -1.3612237835947528e-04 -7.9653048641085949e-03 -1.8005272865060790e-02  -1.4511405526444936e-04 -8.0185203381093941e-03 -1.8386887294507999e-02  -1.5353500033548815e-04 -8.0724956662967997e-03 -1.8792926254337886e-02  -1.6035303963103743e-04 -8.1285668197574185e-03 -1.9219124985814569e-02  -1.6606672122998121e-04 -8.1866664722881500e-03 -1.9661622688221057e-02  -1.6988823550787783e-04 -8.2474930999608259e-03 -2.0119116731861942e-02  -1.7665498790858935e-04 -8.3130079782664044e-03 -2.0582965935952949e-02  -1.8283878290399665e-04 -8.3923465625169273e-03 -2.1098357042186530e-02  -2.4865076209606133e-04 -8.5010680210420853e-03 -2.1550843379404504e-02  -4.4486598207841129e-04 -8.9246340091286430e-03 -2.2672022971610098e-02  1.6483117932882088e-04 -1.0059996435136279e-02 -2.4971759471192744e-02  1.1248144092381174e-03 -1.1696484243713617e-02 -2.3009046163872695e-02  0.0000000000000000e+00 0.0000000000000000e+00 0.0000000000000000e+00  -2.0108549216299480e-03 -1.9333818557416194e-03 -7.1565718565639235e-03  -2.0802770449919665e-03 -5.2291585871532551e-03 -1.8437594015159181e-02  -6.2839208635623810e-04 -7.4138623536637860e-03 -2.2598530905878739e-02  -1.9217008445995682e-04 -8.1726358789311181e-03 -2.3761934075471180e-02  -1.4974966823492618e-04 -8.4230698154215151e-03 -2.4418300427893069e-02  -1.3399757842886471e-04 -8.5294740274750869e-03 -2.4849960660159376e-02  -1.4592106255890440e-04 -8.5937831418709809e-03 -2.5284687921412020e-02  -1.5581139744767848e-04 -8.6499056265190964e-03 -2.5736151127015428e-02  -1.6521950473894341e-04 -8.7059399048134006e-03 -2.6214098556794407e-02  -1.7279450677663711e-04 -8.7638394066723475e-03 -2.6715181026268429e-02  -1.7895821207767300e-04 -8.8237113076736588e-03 -2.7235314387116120e-02  -1.8338296063916633e-04 -8.8864563907166839e-03 -2.7773858894599469e-02  -1.8864794764754896e-04 -8.9536925355230817e-03 -2.8322886879491332e-02  -1.9582762132740086e-04 -9.0358689390782621e-03 -2.8937674442323969e-02  -2.2754735281086888e-04 -9.1488019824282323e-03 -2.9545722054653882e-02  -3.9418400961939979e-04 -9.5851808591167764e-03 -3.0965903765350314e-02  2.5507936722793547e-04 -1.0826834170886018e-02 -3.4289314263724287e-02  1.3062552999487547e-03 -1.2846687723062307e-02 -3.2953764005435801e-02  0.0000000000000000e+00 0.0000000000000000e+00 0.0000000000000000e+00  -8.7290404723378663e-04 1.0636123836838072e-03 -6.7550294746401857e-03  -8.4507896870683434e-04 2.4545039587742551e-03 -1.8194295136459784e-02  -2.8690544578941439e-04 3.1065258641338736e-03 -2.2199811235666243e-02  -9.5734192899848833e-05 3.2829233790934308e-03 -2.3292668554136964e-02  -6.2608949855290214e-05 3.3669982083126830e-03 -2.3918868882312889e-02  -5.1189933472885734e-05 3.4136596613648417e-03 -2.4347097561731475e-02  -5.3429874265388227e-05 3.4551127957062988e-03 -2.4784941808038079e-02  -5.6406324621105816e-05 3.4968725995220100e-03 -2.5241702894943048e-02  -5.9596050015727017e-05 3.5400177053993547e-03 -2.5725084492039398e-02  -6.2197157393502936e-05 3.5848130967254454e-03 -2.6231199513965082e-02  -6.4626322041361813e-05 3.6311757273176973e-03 -2.6756187102146840e-02  -6.5923252132263078e-05 3.6787458244639630e-03 -2.7298377607269258e-02  -6.8749781195616172e-05 3.7299056224597573e-03 -2.7850162019269570e-02  -7.4958977358245818e-05 3.7869663135480960e-03 -2.8468429968901334e-02  -1.0240839369938933e-04 3.8650900751915278e-03 -2.9019248244892940e-02  -1.5399401059637243e-04 4.1399714917977832e-03 -3.0701681475640723e-02  4.7200147320294590e-04 4.5064111929887076e-03 -3.3355119929311471e-02  1.2231406411709733e-03 5.0406273064282775e-03 -3.0436845214363930e-02  0.0000000000000000e+00 0.0000000000000000e+00 0.0000000000000000e+00  -8.7546245389371062e-04 9.2825439278698370e-04 -4.0300178378243857e-03  -9.4097284928840326e-04 2.1095299074143708e-03 -1.2494569546147589e-02  -3.3386919250048862e-04 2.7253062608450637e-03 -1.5383065121177745e-02  -9.5655396971825073e-05 2.9145338975740879e-03 -1.6000686079759099e-02  -6.5668352953445166e-05 2.9980371005320695e-03 -1.6452217570038147e-02  -5.1912068219081853e-05 3.0443484367039080e-03 -1.6786901266608444e-02  -5.4159459069260275e-05 3.0840231658519086e-03 -1.7143484911761379e-02  -5.7060163591868451e-05 3.1239020397882803e-03 -1.7520803536176344e-02  -6.0217353336755284e-05 3.1650984233481780e-03 -1.7921494887835118e-02  -6.2865359598920155e-05 3.2079310798287910e-03 -1.8341831375567361e-02  -6.5123742013265535e-05 3.2523473469703952e-03 -1.8777717036649572e-02  -6.6919035583829707e-05 3.2978497788791914e-03 -1.9227985019884049e-02  -6.9055605333733180e-05 3.3468939047148392e-03 -1.9679533480014919e-02  -7.5124684594082413e-05 3.4013618419393762e-03 -2.0180012835857911e-02  -9.9783132252931551e-05 3.4715319850595577e-03 -2.0561040056352280e-02  -1.9341250116235438e-04 3.6939704566560012e-03 -2.1690127124972227e-02  2.3816284959619842e-04 3.9829497562018958e-03 -2.4152655612538616e-02  1.1514326220761603e-03 4.5764318026420715e-03 -2.2386662299325628e-02  0.0000000000000000e+00 0.0000000000000000e+00 0.0000000000000000e+00  -5.4803782276474839e-04 5.6240396127861005e-04 -1.5447143906956846e-03  -6.4721641067821208e-04 1.2769605042124831e-03 -5.7837423379787619e-03  -2.4886570676892591e-04 1.6742412796339500e-03 -7.2589801403643989e-03  -6.6557191874522259e-05 1.8106506200857000e-03 -7.4900105245813186e-03  -5.1373274824900133e-05 1.8701848118943710e-03 -7.7445839892283722e-03  -4.3525370949296285e-05 1.9054754340160137e-03 -7.9768220381314352e-03  -4.5641676176886427e-05 1.9364220042586064e-03 -8.2330922079143255e-03  -4.8321579327812848e-05 1.9679178868634156e-03 -8.5089872161031362e-03  -5.0911190764698459e-05 2.0008123608308446e-03 -8.8025361243386380e-03  -5.3102928924454706e-05 2.0352207548551466e-03 -9.1106713315015041e-03  -5.4868226325387661e-05 2.0710293838494226e-03 -9.4300742990860373e-03  -5.6345251837999968e-05 2.1078281173344256e-03 -9.7593073334449644e-03  -5.7842091391179332e-05 2.1468309461970207e-03 -1.0088892456826679e-02  -6.1629953398605752e-05 2.1899170341433201e-03 -1.0439906352861503e-02  -7.5849529596176725e-05 2.2404988253407121e-03 -1.0715889496195971e-02  -1.4930268827513502e-04 2.3761577576211558e-03 -1.1254919040176049e-02  2.9576738937100852e-05 2.5317606436380878e-03 -1.2865485272873522e-02  9.2603747247322385e-04 3.0483136826073005e-03 -1.2282830116276337e-02  0.0000000000000000e+00 0.0000000000000000e+00 0.0000000000000000e+00  -6.9051678630025339e-06 1.1815251504343282e-06 -2.1282714291098627e-05  -1.3510862767255250e-05 3.9906304604595106e-06 -8.1414471943384793e-05  -1.9337112619720195e-05 8.3692261471750312e-06 -1.7669656400986342e-04  -2.4458023003092211e-05 1.4191486142637139e-05 -3.0303400324854541e-04  -2.8918718127754670e-05 2.1332191613155655e-05 -4.5656685447351928e-04  -3.2763173640160930e-05 2.9665096519955736e-05 -6.3367712566636460e-04  -3.6035420848562728e-05 3.9062654228277882e-05 -8.3098957484327289e-04  -3.8779829219454741e-05 4.9397005247713873e-05 -1.0453741260164889e-03  -4.1041192657803287e-05 6.0541425162278148e-05 -1.2739491819906824e-03  -4.2864769105433279e-05 7.2371916108025704e-05 -1.5140852742413192e-03  -4.4296298857856022e-05 8.4768925555732492e-05 -1.7634089370132723e-03  -4.5382015295037027e-05 9.7619179106681135e-05 -2.0198067422760153e-03  -4.6168655079356586e-05 1.1081762127991555e-04 -2.2814294449528755e-03  -4.6703448803814238e-05 1.2426942350573155e-04 -2.5466962366774539e-03  -4.7034128366483002e-05 1.3789196898780041e-04 -2.8142987305446471e-03  -4.7208781035735896e-05 1.5161751815096421e-04 -3.0832059832412054e-03  -4.7275875150219746e-05 1.6539433885312334e-04 -3.3526639129413723e-03  -4.7287640948697630e-05 1.7918875349637203e-04 -3.6222040493841530e-03  0.0000000000000000e+00 0.0000000000000000e+00 0.0000000000000000e+00  -7.0254100491249069e-06 1.7584955618204042e-06 -2.0931584699971999e-05  -1.4140513373766588e-05 4.4602511957988431e-06 -8.1024667225307938e-05  -2.0388291749734447e-05 8.7812752413101627e-06 -1.7626918005864069e-04  -2.5897046581804592e-05 1.4551622681509379e-05 -3.0257131045589804e-04  -3.0711246156121593e-05 2.1644043621131804e-05 -4.5607245349348893e-04  -3.4874471339513953e-05 2.9931975506484315e-05 -6.3315467237186611e-04  -3.8430508367295454e-05 3.9287856469158980e-05 -8.3044261404421448e-04  -4.1423810749317460e-05 4.9583863240846314e-05 -1.0448060318892893e-03  -4.3899646603219407e-05 6.0693319885479125e-05 -1.2733631289683224e-03  -4.5904172502270294e-05 7.2492281383374862e-05 -1.5134842101259705e-03  -4.7484483566378923e-05 8.4861250300742900e-05 -1.7627955565964696e-03  -4.8688651783088749e-05 9.7687008818293455e-05 -2.0191834583867668e-03  -4.9565760748474927e-05 1.1086455761348008e-04 -2.2807983590901674e-03  -5.0165902671209242e-05 1.2429912639542011e-04 -2.5460591053810544e-03  -5.0540255345540225e-05 1.3790814577887398e-04 -2.8136568948249024e-03  -5.0740888718580727e-05 1.5162386402743525e-04 -3.0825603587478489e-03  -5.0820522212038489e-05 1.6539465801258403e-04 -3.3520148385821351e-03  -5.0836220163931329e-05 1.7918648093172255e-04 -3.6215524291908800e-03  0.0000000000000000e+00 0.0000000000000000e+00 0.0000000000000000e+00  -6.2275580580229870e-04 -4.9863629074750821e-04 -2.5057825538992461e-03  -6.2099880948491887e-04 -1.2499401071626062e-03 -6.7459547808381721e-03  -2.2267771285135863e-04 -1.7316773381166179e-03 -7.4691980758304173e-03  -7.8238962412948643e-05 -1.8702106235004461e-03 -7.6487387446217804e-03  -5.4954975728799904e-05 -1.9030459520471810e-03 -7.8676257017019427e-03  -5.2284779387594823e-05 -1.9139521826011118e-03 -8.0912482702676109e-03  -5.6156240193043802e-05 -1.9172277363936764e-03 -8.3488235711549289e-03  -6.0137744740659262e-05 -1.9189863448571402e-03 -8.6276437425080975e-03  -6.3626112219390468e-05 -1.9202632046627268e-03 -8.9251651794577704e-03  -6.6409098365457903e-05 -1.9213845192806885e-03 -9.2374652430993378e-03  -6.8730863305751567e-05 -1.9223897616954368e-03 -9.5615219044494180e-03  -7.0146118050347860e-05 -1.9236275606104760e-03 -9.8952147318990807e-03  -7.1962783736264756e-05 -1.9255102416193253e-03 -1.0232567390133547e-02  -7.5933285648212189e-05 -1.9297506459402917e-03 -1.0594531265885110e-02  -8.8588810839970768e-05 -1.9432203807816257e-03 -1.0904913987372188e-02  -1.3433882958456355e-04 -2.0356164662263913e-03 -1.1530434666334787e-02  3.7526477063421955e-05 -2.3298569423862697e-03 -1.2522094074824148e-02  6.8370178368810756e-04 -2.7620009245319182e-03 -1.1041953482368409e-02  0.0000000000000000e+00 0.0000000000000000e+00 0.0000000000000000e+00  -9.2813754588864819e-04 -7.7069988137977777e-04 -5.0372006887874935e-03  -9.5907734077573968e-04 -2.1147887550109442e-03 -1.3461731723979905e-02  -3.1430604190022985e-04 -3.0484131934885128e-03 -1.5842974554220061e-02  -9.3891716948129363e-05 -3.3532995225279499e-03 -1.6375379376847205e-02  -7.1009419216060165e-05 -3.4376233574395548e-03 -1.6782531427852385e-02  -6.5265508899090680e-05 -3.4693892458283215e-03 -1.7105283405350807e-02  -7.1231824222597084e-05 -3.4847001007001785e-03 -1.7459728763187347e-02  -7.6332348379192492e-05 -3.4966010915462144e-03 -1.7837292342094632e-02  -8.0934119599022575e-05 -3.5080799140795537e-03 -1.8239534228