<?xml version="1.0"?>
<VTKFile type="UnstructuredGrid"  version="0.1"  >
<UnstructuredGrid>
<Piece  NumberOfPoints="9728" NumberOfCells="51672">
<Points>
<DataArray  type="Float64"  NumberOfComponents="3"  format="ascii">-1.249037972502504 0.2818159489674468 0.6075353246459402  -1.280951893290971 0.4195547600454606 0.6959995070595736  -1.178345937210195 0.2831323681454639 0.6891432907310653  -1.200578006571126 0.4110755250935318 0.5870454088329844  -1.198143333195847 -0.3841958186282527 0.7872724483144382  -1.254647197909356 -0.3264169119090181 0.7181351936225467  -1.268412031709661 -0.4606041892912033 0.8074061787386054  -1.361626958318669 -0.4129206647762778 0.7721526616848713  1.141895150583182 -0.899008827084015 0.8823899153320338  1.210478929493858 -0.9643821374252077 0.7977785462071753  1.263110328335926 -0.9118283699364941 0.9076169717638645  1.18967313159026 -1.02100896890631 0.8982765245950223  0.645107982242644 -1.145192858742169 0.5331630892426519  0.6887751999636285 -1.186761917778821 0.620835271532801  0.8140690985063096 -1.117458360581463 0.5173254590983274  0.7043661647109517 -1.07120027481914 0.5929267067346728  -0.2632384330263403 -0.1617030057915668 0.3664142738598278  -0.1929415796097975 -0.01253403447964871 0.2936143757488306  -0.2825486597394689 -0.08330313423663965 0.2732595648134312  -0.2533451331760579 -0.05282280576451831 0.3974900222177127  -0.2645248628234761 -0.6095448346169322 0.8859952162997398  -0.25587040267225 -0.4218993647325261 0.8622770189749427  -0.3270274650346942 -0.5347184164886181 0.8240356300620789  -0.3094099565662736 -0.490070054130255 1  -1.344484611421621 -0.6058583500225525 0.0966623524484507  -1.23053982768359 -0.6734894522021914 0.0913177950244263  -1.319394656654317 -0.7325920107550317 0.1262127304604786  -1.356484790387399 -0.6496979981055192 0  1.166310842790331 -1.164338666070102 0.693414259957573  1.103259287620646 -1.222875855186769 0.83978662913347  1.258877957996658 -1.268973660158549 0.79014407561816  1.228800644189905 -1.118933020596128 0.8466710818653972  -0.4449672000766861 -0.7462611356190233 0.3960298986722424  -0.4826632593738313 -0.8218432381188224 0.2958705315336867  -0.5768019304777314 -0.7828524442320018 0.3554170464675891  -0.4682176472957885 -0.7217758353794664 0.2668956297590608  -1.488447448871233 0.1647790369115551 0.9068306917443894  -1.411432539110654 0.2150329183740178 0.8601490146564349  -1.385153928534524 0.1245515897822564 0.905074110734559  -1.455280425441485 0.05998499376780378 0.8625402469806592  0.3365763200382026 -1.850340242542637 0.5568442757336911  0.4747189712558305 -1.935926139605477 0.5927105014186065  0.3729120483689696 -1.963271369027345 0.6072962990194952  0.4149801809171063 -1.954047703537444 0.4901998355790153  1.252456863175129 0.218524917758656 0.4998978997319735  1.209478301171726 0.1259639827038047 0.5407719374891651  1.260909959815802 0.2275672195471825 0.6057500450542345  1.141758270551279 0.2850470230414466 0.5333511764352221  0.531264341534284 1.426917557293477 0.6736617635359191  0.5444226607958822 1.397337860854148 0.7752826553291677  0.6216112817282645 1.48620446444956 0.653270876880569  0.5453582576224539 1.502320665631316 0.7565039222572786  0.6017224807202255 -1.466248111929184 0.7114570559818153  0.5286823838401956 -1.550697523154511 0.7779493907360019  0.4886221409849845 -1.461752299428974 0.7029106796164765  0.4917137933871407 -1.566418319699614 0.6031079313258436  0.6526367401278385 -1.719094994132321 0.3857183919330507  0.7630882452099784 -1.735425524992812 0.4493123119975394  0.6472616336817377 -1.749101300667068 0.5239621148955304  0.7012817358139511 -1.86719907634786 0.4267540496452391  -1.180058623556389 0.9897115625620393 0.8712514589129985  -1.023635557456453 1.065728982166994 0.840262167953848  -1.04359846502582 0.9942610428321308 0.7467085268936088  -1.11908250641993 1.079691633586033 0.8962453864818327  0.5661274925902974 0.8737960991040008 0.4211326620639858  0.7043739781812411 0.8734981997063535 0.4021756933224042  0.638566237574125 0.7812901836745958 0.3282657698335824  0.65882451979926 0.9350940064489932 0.3266571565437499  0.5378889413547365 0.8291394496194783 0.8991870822634097  0.6052910396241158 0.8128465056667895 1  0.4720524054993498 0.8509122174803385 1  0.5348722545597715 0.7242305086064998 1  -0.1990801614380329 1.500403809625785 0.2337083889506579  -0.2756327039185223 1.590551957056764 0.2471852590864232  -0.2488778277046334 1.519678449950723 0.3495565600950338  -0.1368362162319318 1.559079939017067 0.3331210163398707  0.5628733983692942 -1.437319907578454 0.2932263156834118  0.4463045948581962 -1.448655575459239 0.2179434636093117  0.5892570349477162 -1.367380406012912 0.2051339921509049  0.6197317502782511 -1.46562235827096 0.1765648778251171  -0.1810615272156954 -0.627709285731901 0  -0.09598705891103473 -0.5596885576952053 0.09684012320018232  -0.2364521621178755 -0.5866786919426267 0.09436108227494132  -0.1534929039586152 -0.6518779138588334 0.1276260701399895  0.3678797338257388 -0.9926826420642409 0.4546328447230338  0.2439365842027253 -1.060355599511628 0.4786851554003202  0.3680595942168378 -1.050589201403447 0.3567537345774876  0.3027060897012145 -1.129503911411893 0.3682291853523314  0.3193889641757879 0.3346616613050028 0.7357483138067817  0.1817075928012563 0.3565632427066321 0.7028817578558814  0.2805008171516508 0.4521754240198651 0.7640861308497043  0.2371555075784479 0.4671081158233364 0.6252877094497673  0.1153187579510239 -0.1805515928764851 0.8959293996437283  0.08685382773626854 -0.1428482944367407 1  0.1957193156130363 -0.2697243290740231 1  0.1644344999143046 -0.09315776907759979 1  1.445720115018769 -0.395829414678816 0.7918449212110326  1.452995230294162 -0.2416261125139771 0.8472858209577901  1.513899356519349 -0.3329458060678722 0.8872624323057038  1.479622297130288 -0.2850301821799363 0.7421486984699173  0.4323744022089088 -0.01500116291262328 0.7107681849916007  0.4720021301275225 0.09131022533829969 0.6520054547055956  0.596963094250079 -0.008824641535945907 0.634527555179999  0.4814996391668596 -0.003009180039317716 0.5940395375230737  -0.296627916450272 1.553483349923756 0.6192009307824637  -0.1828346066891793 1.4635499121481 0.6201619437791385  -0.1405186373594073 1.557633847343955 0.5620593263612306  -0.2393557591534166 1.574811142498709 0.7343663644199531  1.038725529332988 -1.475259763417932 0  1.067619336386785 -1.55224820588113 0.1131531222970699  1.007705331168326 -1.555248270963418 0  1.08680970800271 -1.546311334795259 0  1.768556299490673 0.6542811809985879 0.7316081709463206  1.794938368816052 0.6049392289111803 0.8367108812457508  1.883006631811543 0.6491712090869002 0.7875049779688377  1.851945979340257 0.7515644579660978 0.7975322324108711  0.7777011108152758 -1.71169815847005 0.8779966606875556  0.7515001700741356 -1.595048564278918 0.8951745894047412  0.8629520535810614 -1.695773408082383 0.9169416336634116  0.8553918285656211 -1.623190359794986 0.8403725730485021  -1.439395669823956 0.4383292098322576 0.124056333220122  -1.369331267032575 0.4328392837119447 0  -1.370709486552788 0.3298104530375964 0.1662857208082945  -1.330996984491085 0.3478320963036868 0  -1.019932685427263 1.453472010691588 0.4747140474494191  -1.04576274273092 1.558078703183998 0.5234392233020714  -0.9122718635580613 1.498360448526719 0.4941580778843169  -1.017204571341843 1.536828165414335 0.3786071973891459  0.8643407841199368 0.6524221062871859 0.5550558850619218  0.8724017120336377 0.7680632099355541 0.4771393953177092  0.8767980288822582 0.809309352540782 0.5754513927826099  0.9556644262227314 0.7378184331473849 0.5828649305348793  -1.089901031264528 0.7957254852461064 0.1913269327934938  -0.9819757157057937 0.8326244710770875 0.303411228885612  -1.093268801410212 0.9087019560874248 0.2979029384594206  -1.148585165960611 0.7831890512545767 0.278771952092199  -1.789553456151074 -0.6507004804360705 0.4431548731396018  -1.691788696745552 -0.6063291543514595 0.4350587410795295  -1.74855798231731 -0.6931539922244262 0.3531027739056484  -1.786058858732206 -0.5567845093384832 0.3646111114228406  -0.09724746534819163 -1.145196001158491 0.7977355485820417  0.06937553709935805 -1.169315745124741 0.7844927973474637  -0.06373849626385764 -1.119511562445353 0.6931850841941359  -0.02033783584544894 -1.05713746227879 0.8398844049425396  -1.011733948999661 -0.0758118653799844 0.2143968380943639  -0.8990052428567518 -0.1739688575838445 0.2278943249025378  -1.045995065011335 -0.2052471781647249 0.1948499331716734  -0.99595473286087 -0.1376999701042034 0.1322039152120069  -0.6824351106162643 -1.595461741577734 0.111013569237407  -0.6730288009281984 -1.474220721456945 0  -0.6057874450518902 -1.534571599074763 0  -0.7435580457401318 -1.555827575269514 0  1.57019381369625 -0.3984276546304953 1  1.616963883744449 -0.3275393679617822 0.9111412662799167  1.674379408366278 -0.4606358754729615 1  1.702871213678232 -0.3843874366916501 0.8864440437148415  0.3815044162153052 -0.7835470403056009 0.6517081791153156  0.4772457802734402 -0.8731036481493585 0.5526653634766189  0.4167609505051056 -0.8937790193967429 0.7005752115042333  0.3105853104087675 -0.8598382449425548 0.5902581952924532  0.6053159126667526 -0.6717031693323174 1  0.6532848195252638 -0.6647513486684222 0.8915239599703533  0.5480791404713162 -0.7637810757848593 1  0.5051194160870779 -0.7682061601939411 0.8892690763859615  0.00655208509765793 -0.2140757378638855 0.6782076144113935  0.1352992248055041 -0.1696860471641245 0.6205222482010107  0.03367366011811733 -0.1882154533980484 0.5769596238397021  0.07439419307147822 -0.07774941631655292 0.6284342912980903  1.405779435781338 -0.03546910524840687 0.5135316396827494  1.292767536788201 -0.04007798169438738 0.6035358353236999  1.423812552467 0.05387435379931122 0.5960275973281016  1.301270190901949 0.08007981744488463 0.6066121216452424  -1.156026997856941 -0.7488504678596947 0.8388313307017012  -1.102289497291167 -0.8810065547459662 0.8611268743070224  -1.25705941967288
[...]
<PointData  Vectors="Displacement"> 
<DataArray  type="Float64"  Name="Displacement"  NumberOfComponents="3" format="ascii">9.2813561220649781e-05 -7.8700269190319272e-06 -2.0595493806208577e-03  1.6386140415056385e-04 -3.0497772741348719e-05 -1.8484383349674257e-03  1.8296774363010687e-04 -1.3740658255781045e-05 -1.8191805321219703e-03  1.0344217592747429e-04 -1.2868252455975444e-05 -2.0671302788389085e-03  1.6975910369934860e-04 2.7820402879543868e-05 -1.4448878032802227e-03  1.5571338028782619e-04 2.3161248896410969e-05 -1.7595206381703602e-03  1.5798320609196819e-04 3.7893845420144120e-05 -1.3629784370301058e-03  1.6324319434333467e-04 4.4965866314728274e-05 -1.5395119625043567e-03  9.7241059242744232e-02 1.4211207253111572e-02 -2.9960307722330304e-01  7.5253084454812130e-02 1.1559320391733994e-02 -3.1636422285822874e-01  1.0674373617458527e-01 1.5617769493317911e-02 -3.3491380362018874e-01  1.0089385840790904e-01 1.6772339034503269e-02 -3.0782724228653591e-01  5.8384639145812106e-03 1.5470050852216025e-03 -1.4676656074965505e-01  2.2142727265767766e-02 5.3533676763742096e-03 -1.5718123780556251e-01  3.6468806282124906e-03 1.0311619179031481e-03 -1.9362161227692284e-01  1.7245338573268570e-02 3.5405029252154403e-03 -1.6529741903760575e-01  -5.2298156757272845e-03 -3.5142454303794504e-05 -1.6803126466810882e-03  -8.7425833549753824e-03 1.1539442166345890e-04 -3.0840993783017496e-03  -7.1859042286802751e-03 -2.2773464980846419e-05 -1.6157342249051648e-03  -4.4280330470565180e-03 -9.6503333246909201e-05 -1.6547430095486975e-03  6.4200869258184065e-03 3.7094167800598774e-04 -1.5554551750434735e-03  6.4510614514209632e-03 1.6061172251036614e-04 -1.6596462158887109e-03  5.9286869813101346e-03 1.2725015324817411e-04 -1.2486108873522852e-03  0.0000000000000000e+00 0.0000000000000000e+00 0.0000000000000000e+00  -1.2418315771562413e-04 -4.8747540330183705e-05 -7.5220341201022835e-04  -1.1402564404971714e-04 -3.8714287140677171e-05 -7.2091172209912450e-04  -1.7253877350659994e-04 -8.0685195280278484e-05 -9.5365951935254744e-04  0.0000000000000000e+00 0.0000000000000000e+00 0.0000000000000000e+00  4.5961208331438477e-02 8.6738914455170950e-03 -2.9176080419165967e-01  8.0182908165493783e-02 1.6242765592899337e-02 -2.7110200005527918e-01  6.9883422456891817e-02 1.3652696129751367e-02 -3.1175997875528300e-01  8.6320897038139888e-02 1.5237637714503489e-02 -3.1334109431238411e-01  -2.1314467394495783e-03 -7.4478065725149264e-06 -3.0032103930957365e-04  -3.1526618477941506e-03 -1.5518807116611272e-04 -6.0308285040332210e-04  -1.7494908528947126e-03 -8.8529038131649753e-05 -6.4275741441086553e-04  -3.5190716412181254e-03 -1.6176619296633641e-04 -6.1025309706613925e-04  1.2300188538821839e-04 -1.4836186508816180e-05 -7.2681217158223786e-04  1.5251350370007070e-04 -1.7205798041517650e-05 -1.0572360956344568e-03  1.0806478551483712e-04 -3.7748803154447663e-06 -7.5254292845192974e-04  1.5449259173490828e-04 -5.8133031372359179e-06 -1.0424056129966729e-03  6.0136574121848778e-03 3.3561274913599831e-03 -4.9107561687582554e-02  1.0869231940064183e-02 5.8567432459894634e-03 -6.7865065682469236e-02  1.0733654584935302e-02 7.0052277323669910e-03 -4.8458959355184801e-02  -1.0142283865618582e-04 -3.4010718319039246e-04 -5.5778238105609078e-02  3.2010551166205260e-05 1.6716938423649917e-04 -3.5007599926643357e-01  1.0527050114803824e-02 -9.9216031336808670e-05 -3.3770078811939630e-01  2.8095267801941288e-02 -9.3939210009935680e-04 -3.5274607318559809e-01  8.6759425838384800e-03 -2.5177511438769092e-04 -3.1455706623999447e-01  2.5048938268338147e-02 -7.3603381528047924e-03 -1.0738372906231593e-01  4.2607688393983614e-02 -1.1679109527594520e-02 -1.1299289657162161e-01  2.4277205629459633e-02 -7.4077695571224244e-03 -1.2568948186541745e-01  3.8163843506363940e-02 -1.2000565449687714e-02 -1.0854809959806794e-01  3.3524656249489013e-02 1.0649657449632354e-02 -1.2367694391414856e-01  4.0504331696120048e-02 1.4192898406253806e-02 -1.0375155663712715e-01  2.8564533139105609e-02 9.5301635094831375e-03 -9.7844607863371888e-02  1.3643746961566899e-02 5.4849974303645740e-03 -9.3152924357995798e-02  -1.6177761277447425e-02 -6.3455706896592577e-03 -1.1991122955442782e-01  -7.1489854167559328e-03 -2.5125080634684585e-03 -1.4408148070117863e-01  3.8624224925809607e-03 1.8674801224787664e-03 -1.1680043836556191e-01  -9.4434637481128157e-03 -4.1100059259774951e-03 -1.1943623150601297e-01  1.9685228815921228e-04 -1.0857041607267818e-04 -9.1939125302224311e-04  3.1534417324726783e-04 -1.1655402116954994e-04 -1.0663600515650610e-03  3.3684279787492185e-04 -1.0831660713106889e-04 -1.5001403608687312e-03  1.9966968352802574e-04 -1.1316840873717828e-04 -7.6072969865129971e-04  -1.2753611017022956e-02 2.1401487751679677e-03 -1.3121397093792991e-01  -1.8223271989604117e-02 3.0572049401261852e-03 -1.6940828529642821e-01  -3.1314235622163886e-02 4.3566826378572329e-03 -1.5371072389791940e-01  -3.1674377558629334e-02 5.3473156256785377e-03 -1.5564980329185679e-01  7.1923069294819383e-02 -9.2842032380527524e-03 -1.3016993369523663e-01  1.0131414942911565e-01 -1.2219886991283450e-02 -1.5125203637081941e-01  8.8399419444269198e-02 -1.0863970170895378e-02 -1.1626597378483292e-01  9.5931685640647357e-02 -9.9132286585895037e-03 -1.3446489586230809e-01  -7.5097570980974995e-03 1.6711879366394353e-03 -1.9699702135108715e-03  -5.6316768540049548e-03 1.3683569929591065e-03 -1.0863868346712190e-03  -4.3281866989875175e-03 9.8132427671732679e-04 -1.5511593048944572e-03  -5.9373070922625806e-03 1.5872388032115059e-03 -3.4215506502806472e-03  -3.1292033875705096e-02 -9.0500444647664460e-03 -1.1620256048799132e-01  -3.7156725452490047e-02 -1.1388807926018289e-02 -9.0086862263359865e-02  -4.8146981248030331e-02 -1.2378556086549287e-02 -1.2651669889166536e-01  -5.3266786632873014e-02 -1.5444033637459434e-02 -1.3019914074904240e-01  0.0000000000000000e+00 0.0000000000000000e+00 0.0000000000000000e+00  -1.0561808154062611e-02 -3.5403059801756914e-04 -3.9655948032836516e-03  -6.1530449945924933e-03 -2.2597612590175649e-04 -1.4361564614839945e-03  -1.0348121394944737e-02 -4.3681556722069664e-04 -2.8013893398489888e-03  -6.1849335705188562e-03 -8.3316038102532078e-04 -8.1230550232185172e-02  -2.4084580657200596e-03 -4.1294002286132187e-04 -5.2748176153958409e-02  -1.7327751856342329e-02 -3.4132212108672019e-03 -8.0641975608874400e-02  -1.3906425394150098e-02 -2.6709485867139897e-03 -6.4733887880868174e-02  2.8842247959074783e-02 -1.7938981119323004e-03 -7.5186520979210164e-02  1.8833045087730295e-02 -1.6184990166562691e-03 -4.3466377504989301e-02  3.0892861599598854e-02 -2.1899491801124554e-03 -6.5658428355550719e-02  1.2804551929205160e-02 -1.2048128946846627e-03 -5.4681712279566655e-02  3.1335153858438658e-02 4.3733626691485017e-04 -3.4026527524414464e-02  3.5878229840271933e-02 6.8789648248626591e-04 -3.4215405529828338e-02  5.7179344023781380e-02 1.4525410904243469e-03 -5.7443332625803922e-02  5.1877698171362195e-02 3.3077251417732611e-04 -4.9112554518617499e-02  8.1109295264851125e-02 4.8735720575664027e-03 -4.0823828283138341e-01  9.7413271507530499e-02 3.5231632029710845e-03 -4.1320194426411549e-01  1.0967647626584821e-01 5.4402586258651166e-03 -4.3036733676472677e-01  6.7572793448164123e-02 2.8303541302590941e-03 -4.2053828129810927e-01  3.2300003490137633e-02 -6.2935133048208011e-06 -1.0492000873084452e-01  2.3770917103663563e-02 -3.6485311373792245e-04 -1.1448062348921681e-01  2.5251308103301871e-02 1.4021161090279374e-04 -1.4986017769641807e-01  1.4931415851171911e-02 1.0234043369468768e-04 -1.1691456557837840e-01  2.9208467690906622e-03 -5.8284875179876329e-04 -8.5133393557520890e-04  4.3537271410427044e-03 -8.9508606365545115e-04 -3.1754265195368062e-03  2.5648831224750869e-03 -6.8226190344455537e-04 -4.1855063487190747e-03  6.1481887648793341e-03 -1.4179781390052562e-03 -1.5812405252720618e-03  -1.1240227910270019e-01 -2.8006706566556138e-02 -2.3775571999282721e-01  -8.2301264366062485e-02 -2.0666504350635776e-02 -2.3853853107290277e-01  -1.0843989345114735e-01 -2.8845735960596433e-02 -2.2359238248859056e-01  -1.1123517169066602e-01 -2.8349369268559566e-02 -2.4506598687751374e-01  6.4965201516098026e-02 -4.5380737270560188e-03 -4.9516096747459637e-01  9.5548088505823137e-02 -6.6513717991380792e-03 -5.0515070275077867e-01  8.1146652978832889e-02 -4.7660544604374829e-03 -5.2917133131163629e-01  8.3014683268512982e-02 -5.6855769834077202e-03 -5.1512543844895453e-01  6.6749037284784166e-02 2.3322561547017725e-02 -1.5234965935783246e-01  7.2784519143189869e-02 2.2912775443795580e-02 -1.5492717331276484e-01  7.9210395077654164e-02 2.5820313757924689e-02 -1.7461677550405430e-01  6.4400048033358387e-02 2.0008454642942108e-02 -1.7744293800437291e-01  -1.5674555243452973e-04 4.4559376970322184e-05 -9.3887582147701471e-04  0.0000000000000000e+00 0.0000000000000000e+00 0.0000000000000000e+00  -1.7076539319538692e-04 3.1396069948952096e-05 -1.2261075612712206e-03  0.0000000000000000e+00 0.0000000000000000e+00 0.0000000000000000e+00  -5.9812715490540651e-05 1.6333767799381817e-05 -1.2879007922752888e-03  2.2097000268693371e-05 -8.4035020187705234e-06 -8.3863989433556954e-04  -4.7538003152513005e-05 9.0172276159783033e-06 -1.2374355822570113e-03  -1.6127634710333934e-04 7.5491808264559245e-05 -9.5821142293597253e-04  1.2122984614219097e-02 -1.1524551917980633e-03 -2.2166760449245365e-01  -4.7444483466865285e-03 6.6029800753794252e-04 -2.2083763760566288e-01  1.6604008201391549e-02 -2.1432139650620001e-03 -2.2114853524148842e-01  1.9221594205092233e-02 -2.2738803127183554e-03 -2.4670805329554579e-01  -2.8274033920218177e-04 8.6317612581061933e-05 -1.2846752125136253e-03  -3.6349159344684800e-04 6.3070789459950135e-05 -1.5983088461640723e-03  -2.7688711646785589e-04 9.0031513608222703e-05 -1.6825508483258444e-03  -2.2568374779376508e-04 6.7282937328303865e-05 -1.6618033338912284e-03  -4.3993144521459148e-05 -1.3305253912103071e-05 -7.7678363589275660e-04  -7.5454390384546154e-05 -2.2732190711627383e-05 -1.4397043043680780e-03  -9.8185557107084432e-05 -3.4553269508554104e-05 -9.1408756019746421e-04  -1.1846768635206680e-04 -2.9242450243304766e-05 -9.8841316936538288e-04  1.1216872158544517e-02 1.8667959347184184e-03 -4.4329531589969145e-03  1.7292138554327697e-02 4.4322130434075839e-03 -2.0258330930737832e-02  9.5929920154725935e-03 1.8366837579792169e-03 -8.2559895547956366e-03  1.3949036991030998e-02 2.3075958234459030e-03 -8.0303410810763816e-03  -3.7154521237216812e-04 4.8218380790117194e-06 -1.3268058631262982e-03  -6.1034457036291247e-04 -2.0379320746288378e-05 -1.3071187223632553e-03  -3.0076222565111806e-04 -9.9019597657094315e-06 -1.2738307434220269e-03  -2.9597152216205889e-04 -3.6352781909177577e-06 -9.2176322351541758e-04  -7.6148040989203289e-04 -2.1841764569692200e-04 -6.2879129751388112e-04  0.0000000000000000e+00 0.0000000000000000e+00 0.0000000000000000e+00  0.0000000000000000e+00 0.0000000000000000e+00 0.0000000000000000e+00  0.0000000000000000e+00 0.0000000000000000e+00 0.0000000000000000e+00  1.4345886270994682e-01 8.9939068543509922e-03 -4.4559565807511053e-01  1.1785085778022207e-01 5.5832868439024885e-03 -4.6165169359074887e-01  1.4410657622640469e-01 9.8868060164852452e-03 -4.7536839674460507e-01  1.1108965989189122e-01 5.9089429336337271e-03 -4.8627492838022413e-01  1.9953446415956831e-02 2.6564380885293385e-03 -8.7220307438028388e-02  7.9972135190235251e-03 1.2826762967884815e-03 -1.0938362168303911e-01  2.7896506957863301e-02 4.3818666904973892e-03 -9.4967613012235663e-02  1.0325566102372782e-02 1.5773279154444413e-03 -6.9888104522788999e-02  1.0282474186680074e-01 9.6734145059214332e-03 -1.5551256467906735e-01  8.0191221931831688e-02 8.0522780880928190e-03 -1.6577947789215544e-01  9.7976199944223297e-02 1.0500934562079312e-02 -1.3884356956468019e-01  6.8104182927671300e-02 7.8574593378594546e-03 -1.2415296629050576e-01  1.1003060895727307e-02 3.4989271707641992e-04 -1.6361393294576504e-02  1.0114737697190741e-02 5.7086285134956636e-04 -3.5955007383269198e-02  5.1646419988783648e-03 2.3041055661407662e-04 -2.0684473271315139e-02  9.1780078558618555e-03 1.6567494676230938e-04 -2.5375540107846276e-02  3.7644074674343378e-03 2.1775460606389773e-04 -3.9954594341880673e-01  2.7736523770117229e-02 2.9805129892314071e-04 -3.6440282118122536e-01  2.6515861541096163e-02 -4.0478652761896220e-05 -4.0508754547419235e-01  2.8571299408447891e-02 -1.6625648084771350e-04 -3.6676291987553650e-01  1.9735812671835130e-04 6.4560959046131835e-05 -1.1496712685096725e-03  2.3625720904347497e-04 7.9069204699545615e-05 -1.0033307468030063e-03  1.9199137634097593e-04 8.9730904667206310e-05 -9.0684772636457907e-04  2.1595321661298684e-04 9.1261519711870374e-05 -1.4254966083803000e-03  1.3915550946046851e-01 1.6092458367350734e-02 -4.0132926329631297e-01  1.4202109272678323e-01 1.3892258570309965e-02 -4.5163977687653456e-01  1.0776500579777176e-01 1.0782548925332692e-02 -4.3202150639441239e-01  1.4076926962148414e-01 1.3856741672878278e-02 -4.1600957263596550e-01  -3.2397021616327758e-02 -1.1977232994500122e-02 -3.2390405752794164e-02  -1.8815722516237480e-02 -7.5387351175136910e-03 -1.7089195438979281e-02  -3.6339341529586601e-02 -9.5653483174393712e-03 -3.5813518474579829e-02  0.0000000000000000e+00 0.0000000000000000e+00 0.0000000000000000e+00  -5.0106506676282679e-04 1.3547580886393967e-04 -4.7769348420678936e-04  1.0856754422805774e-04 -3.0227041323619731e-05 -7.4825557391142313e-04  -1.1168819260036929e-03 2.6016176487821975e-04 -7.7473475853468028e-04  -1.2097534426226267e-03 2.2043932003275443e-04 -6.1813479255776920e-04  1.3733149978806653e-03 -4.4951974465482011e-05 -7.0373888266557613e-04  9.7581873867044419e-04 -2.1140431898710979e-05 -9.3369776166223821e-04  1.8838417398023331e-03 -1.1434568514113047e-04 -8.8995787750731706e-04  1.4995023236413865e-03 -6.1941742465437501e-05 -9.5524052618813039e-04  4.4119665827015903e-02 1.5646451197218834e-03 -5.8179375056769081e-02  5.1888014513406314e-02 1.1238054956256777e-03 -8.1439263986138974e-02  8.0234561015172567e-02 2.0494434906825057e-03 -9.3792079630269615e-02  5.0865397204065611e-02 2.1838318582829792e-03 -7.8379790190321749e-02  7.4752977076216712e-02 8.2920512715763377e-03 -3.1385081405817639e-01  4.9728105719610491e-02 5.3886622465862660e-03 -3.4298896436272791e-01  8.1923881023722264e-02 9.5953895949958210e-03 -3.6253289811913086e-01  5.6099327665601377e-02 7.0861377257973651e-03 -3.0920584344991064e-01  -1.3886677815101323e-01 -6.0572260006987984e-03 -3.5732267939744378e-01  -1.1110649323335231e-01 -5.6588750419452180e-03 -3.6155633458677056e-01  -1.0792359830047824e-01 -4.3679555260609636e-03 -3.4138846432232128e-01  -1.3784136286766416e-01 -7.7825280572189686e-03 -3.5040235653931034e-01  -6.5811694200866855e-02 -9.3174180174042842e-04 -4.9050575943690117e-01  -2.9430922407918746e-02 -4.2691957847753394e-04 -4.8320342361522478e-01  -3.8832314049822479e-02 1.9952532865532015e-04 -4.8973978752196146e-01  -5.5677024587666088e-02 -2.0590350839903404e-04 -4.5523498174032245e-01  6.0325453289999081e-02 -1.7409038772187274e-02 -1.0888458615018499e-01  7.0391755473210693e-02 -2.0687095722869780e-02 -1.2729980349489925e-01  5.4065087654151418e-02 -1.5206654982098347e-02 -1.3034973860464966e-01  5.0628261539057390e-02 -1.7248640147332388e-02 -1.0356119802800835e-01  1.3380951100522295e-04 -1.8141526094699734e-05 -2.0087981089076412e-03  2.1771909597085478e-04 -3.9195491761460410e-05 -1.6308078090047742e-03  1.5041919072955145e-04 -3.1831997786266744e-05 -1.9093162564321955e-03  1.5225526175439204e-04 -3.8799692689868835e-05 -1.8593099342083192e-03  -8.5727823536777270e-03 4.3830944479678963e-04 -7.5883893092413288e-03  -1.1005338185473897e-02 8.7354659811217134e-04 -1.6237655900159947e-02  -1.1585697142872629e-02 4.9783223338453438e-04 -4.3720304277880548e-03  -8.9467871893566461e-03 5.2484105622426901e-04 -7.5821988014783664e-03  8.3279810365130380e-02 1.8051640797351189e-02 -1.7536455003746529e-01  1.1004037474042225e-01 2.2367407554051442e-02 -1.9680972986931697e-01  8.6076655552870820e-02 1.9682113658287273e-02 -1.9535166377955962e-01  7.4912272517386760e-02 1.5469104965225003e-02 -1.9455340255924536e-01  2.0340267071865926e-04 -1.5693421565011988e-05 -7.5606373416174980e-04  2.2945346974113538e-04 -1.3107716533039740e-05 -5.8983115199554232e-04  2.3706467998337911e-04 -3.2310284220419532e-06 -8.1392428238964297e-04  2.5212876426310973e-04 7.8648362512797131e-06 -5.5952929900085610e-04  -6.3240893984071162e-05 3.7534646640578333e-05 -7.9105091069427039e-04  0.0000000000000000e+00 0.0000000000000000e+00 0.0000000000000000e+00  0.0000000000000000e+00 0.0000000000000000e+00 0.0000000000000000e+00  0.0000000000000000e+00 0.0000000000000000e+00 0.0000000000000000e+00  -1.3069577172925172e-04 -3.8781641175350803e-05 -8.5119601484159651e-04  0.0000000000000000e+00 0.0000000000000000e+00 0.0000000000000000e+00  0.0000000000000000e+00 0.0000000000000000e+00 0.0000000000000000e+00  0.0000000000000000e+00 0.0000000000000000e+00 0.0000000000000000e+00  1.1502635845191302e-01 2.7601030118181560e-02 -2.8736541040549429e-01  9.0897225719487509e-02 2.1036704764352054e-02 -2.7963223387922465e-01  7.7395600346273644e-02 1.6753513916398986e-02 -2.9739833888147443e-01  8.5278179123525547e-02 2.0669057334303746e-02 -2.7400838350288431e-01  0.0000000000000000e+00 0.0000000000000000e+00 0.0000000000000000e+00  -1.3333207736215385e-04 1.8366732279054234e-05 -8.2896402966069899e-04  0.0000000000000000e+00 0.0000000000000000e+00 0.0000000000000000e+00  -1.3461489186868066e-04 3.0276173891811330e-05 -9.2952562883070555e-04  -9.8295940904495486e-04 -2.2306651574623425e-05 -9.6646396390920092e-04  -1.3780688868443910e-03 -5.1641618634088376e-05 -1.0150783807137775e-03  -7.2547922214398724e-04 -7.7497343164227432e-06 -8.0609554372631294e-04  -1.3976884065764643e-03 -1.6561585073368981e-05 -7.6409353877695684e-04  1.3128717487271768e-01 -1.3839157039572310e-02 -2.9656951682723659e-01  9.9235006170410658e-02 -9.0301981632001406e-03 -3.0474956684741672e-01  8.4249375368817978e-02 -8.9279497897796420e-03 -3.2077899345012001e-01  1.0734466842702968e-01 -1.0344910676780264e-02 -3.3891808885139313e-01  -7.6806337583385620e-02 8.0095845875897582e-03 -4.4477699956863609e-01  -1.0238041633849115e-01 1.0000448270405304e-02 -4.7601849291262388e-01  -8.0052147476030414e-02 6.6346593228147630e-03 -4.9326903427208213e-01  -9.4412454539635537e-02 7.7368901435022116e-03 -4.8164863826782922e-01  -1.0787551346022085e-02 -1.9166538497431946e-03 -2.6056646800333411e-01  1.4513516363980416e-02 3.7081060639894896e-03 -2.4249124922233170e-01  1.2681431878455452e-02 3.3798589211849299e-03 -2.6239306596632517e-01  1.5269219083152494e-02 3.6720361139000609e-03 -2.7562914909376685e-01  4.1980304823615051e-03 -4.2454945276622103e-04 -1.1156896289304299e-03  3.3296187421098002e-03 -3.4127461876289414e-04 -1.1757030026493037e-03  2.8558380574613051e-03 -2.9408729307242771e-04 -8.8763600454329187e-04  5.2705558522696374e-03 -5.0096987860670126e-04 -1.2893111359301758e-03  0.0000000000000000e+00 0.0000000000000000e+00 0.0000000000000000e+00  0.0000000000000000e+00 0.0000000000000000e+00 0.0000000000000000e+00  1.4327369505749346e-04 -7.6995515994491794e-05 -9.7203291527380559e-04  1.5419998701334220e-04 -7.2539369336879810e-05 -5.1978405474928336e-04  -2.0260779256028896e-04 2.9666705894461489e-05 -1.7656024617264930e-03  -3.6813625163890494e-06 -1.0247823786772220e-05 -1.6722910589167354e-03  -1.5508451275120233e-04 2.6846315018098172e-05 -1.8474444725241229e-03  1.7609778500195968e-04 -3.3457341411036007e-05 -1.7619919903257835e-03  0.0000000000000000e+00 0.0000000000000000e+00 0.0000000000000000e+00  3.1268362764567525e-04 1.9162483692092042e-04 -8.4692864914742629e-04  2.1579658565696989e-04 1.6227284620383553e-04 -6.3241433797307724e-04  0.0000000000000000e+00 0.0000000000000000e+00 0.0000000000000000e+00  -1.8415383661567306e-04 5.3755554016093238e-05 -4.2643696018511803e-04  0.000000000000