<?xml version="1.0"?>
<VTKFile type="UnstructuredGrid"  version="0.1"  >
<UnstructuredGrid>
<Piece  NumberOfPoints="1261" NumberOfCells="2400">
<Points>
<DataArray  type="Float64"  NumberOfComponents="3"  format="ascii">0 0 0  0.05 0 0  0.02500000000000001 0.04330127018922193 0  -0.02499999999999999 0.04330127018922194 0  -0.05 6.123233995736766e-18 0  -0.02500000000000002 -0.04330127018922192 0  0.02500000000000001 -0.04330127018922193 0  0.1 0 0  0.08660254037844388 0.05 0  0.05000000000000002 0.08660254037844387 0  6.123233995736766e-18 0.1 0  -0.04999999999999998 0.08660254037844388 0  -0.08660254037844388 0.05 0  -0.1 1.224646799147353e-17 0  -0.08660254037844389 -0.04999999999999998 0  -0.05000000000000004 -0.08660254037844384 0  -1.83697019872103e-17 -0.1 0  0.05000000000000002 -0.08660254037844387 0  0.08660254037844384 -0.05000000000000004 0  0.15 0 0  0.1409538931178863 0.05130302149885031 0  0.1149066664678467 0.09641814145298089 0  0.07500000000000001 0.1299038105676658 0  0.02604722665003956 0.1477211629518312 0  -0.02604722665003955 0.1477211629518312 0  -0.07499999999999997 0.1299038105676658 0  -0.1149066664678467 0.09641814145298092 0  -0.1409538931178863 0.05130302149885033 0  -0.15 1.83697019872103e-17 0  -0.1409538931178863 -0.0513030214988503 0  -0.1149066664678468 -0.09641814145298083 0  -0.07500000000000007 -0.1299038105676658 0  -0.02604722665003955 -0.1477211629518312 0  0.02604722665003949 -0.1477211629518312 0  0.0749999999999999 -0.1299038105676658 0  0.1149066664678467 -0.09641814145298093 0  0.1409538931178863 -0.05130302149885029 0  0.2 0 0  0.1931851652578137 0.05176380902050415 0  0.1732050807568878 0.09999999999999999 0  0.1414213562373095 0.1414213562373095 0  0.1 0.1732050807568877 0  0.05176380902050415 0.1931851652578137 0  1.224646799147353e-17 0.2 0  -0.05176380902050413 0.1931851652578137 0  -0.09999999999999996 0.1732050807568878 0  -0.1414213562373095 0.1414213562373095 0  -0.1732050807568878 0.09999999999999999 0  -0.1931851652578137 0.0517638090205042 0  -0.2 2.449293598294707e-17 0  -0.1931851652578137 -0.05176380902050416 0  -0.1732050807568878 -0.09999999999999995 0  -0.1414213562373096 -0.1414213562373094 0  -0.1000000000000001 -0.1732050807568877 0  -0.05176380902050413 -0.1931851652578137 0  -3.673940397442059e-17 -0.2 0  0.05176380902050406 -0.1931851652578137 0  0.1 -0.1732050807568877 0  0.1414213562373095 -0.1414213562373095 0  0.1732050807568877 -0.1000000000000001 0  0.1931851652578136 -0.05176380902050431 0  0.25 0 0  0.2445369001834514 0.05197792270443983 0  0.2283863644106502 0.10168416076895 0  0.2022542485937369 0.1469463130731183 0  0.1672826515897146 0.1857862063693485 0  0.125 0.2165063509461096 0  0.07725424859373686 0.2377641290737884 0  0.02613211581691336 0.2486304738420683 0  -0.02613211581691333 0.2486304738420684 0  -0.07725424859373684 0.2377641290737884 0  -0.1249999999999999 0.2165063509461097 0  -0.1672826515897145 0.1857862063693486 0  -0.2022542485937368 0.1469463130731183 0  -0.2283863644106502 0.10168416076895 0  -0.2445369001834514 0.05197792270443983 0  -0.25 1.416384724411995e-16 0  -0.2445369001834514 -0.05197792270443977 0  -0.2283863644106502 -0.1016841607689501 0  -0.2022542485937369 -0.1469463130731183 0  -0.1672826515897146 -0.1857862063693485 0  -0.1250000000000001 -0.2165063509461096 0  -0.07725424859373689 -0.2377641290737884 0  -0.02613211581691356 -0.2486304738420683 0  0.02613211581691325 -0.2486304738420684 0  0.07725424859373681 -0.2377641290737884 0  0.125 -0.2165063509461096 0  0.1672826515897146 -0.1857862063693485 0  0.2022542485937368 -0.1469463130731183 0  0.2283863644106502 -0.10168416076895 0  0.2445369001834514 -0.05197792270443975 0  0.3 0 0  0.2954423259036624 0.0520944533000791 0  0.2819077862357725 0.1026060429977006 0  0.2598076211353316 0.15 0  0.2298133329356934 0.1928362829059618 0  0.1928362829059618 0.2298133329356934 0  0.15 0.2598076211353316 0  0.1026060429977006 0.2819077862357725 0  0.05209445330007912 0.2954423259036624 0  1.83697019872103e-17 0.3 0  -0.05209445330007909 0.2954423259036624 0  -0.1026060429977005 0.2819077862357725 0  -0.1499999999999999 0.2598076211353316 0  -0.1928362829059618 0.2298133329356934 0  -0.2298133329356934 0.1928362829059618 0  -0.2598076211353315 0.1500000000000001 0  -0.2819077862357725 0.1026060429977007 0  -0.2954423259036624 0.05209445330007908 0  -0.3 3.673940397442059e-17 0  -0.2954423259036624 -0.05209445330007901 0  -0.2819077862357725 -0.1026060429977006 0  -0.2598076211353316 -0.15 0  -0.2298133329356935 -0.1928362829059617 0  -0.1928362829059618 -0.2298133329356934 0  -0.1500000000000001 -0.2598076211353315 0  -0.1026060429977006 -0.2819077862357725 0  -0.0520944533000791 -0.2954423259036624 0  -5.510910596163089e-17 -0.3 0  0.05209445330007899 -0.2954423259036624 0  0.1026060429977007 -0.2819077862357725 0  0.1499999999999998 -0.2598076211353317 0  0.1928362829059618 -0.2298133329356934 0  0.2298133329356933 -0.1928362829059619 0  0.2598076211353316 -0.1499999999999999 0  0.2819077862357725 -0.1026060429977006 0  0.2954423259036624 -0.05209445330007911 0  0.35 0 0  0.346090789178795 0.05216479316166105 0  0.3344504820251492 0.1031643110438165 0  0.3153391037658467 0.1518593086911453 0  0.2891835710105982 0.1971620203222677 0  0.2565681551404392 0.2380604582198217 0  0.2182214306505567 0.2736410188638104 0  0.175 0.3031088913245535 0  0.1278693585282382 0.3258058120254715 0  0.07788232688471006 0.3412247692636383 0  0.02615553275524854 0.349021329013413 0  -0.02615553275524841 0.349021329013413 0  -0.07788232688471002 0.3412247692636383 0  -0.1278693585282383 0.3258058120254715 0  -0.1749999999999999 0.3031088913245535 0  -0.2182214306505567 0.2736410188638104 0  -0.2565681551404392 0.2380604582198217 0  -0.2891835710105982 0.1971620203222676 0  -0.3153391037658466 0.1518593086911454 0  -0.3344504820251492 0.1031643110438166 0  -0.346090789178795 0.05216479316166115 0  -0.35 4.286263797015736e-17 0  -0.346090789178795 -0.05216479316166091 0  -0.3344504820251493 -0.1031643110438164 0  -0.3153391037658467 -0.1518593086911453 0  -0.2891835710105982 -0.1971620203222677 0  -0.2565681551404392 -0.2380604582198218 0  -0.2182214306505568 -0.2736410188638104 0  -0.1750000000000002 -0.3031088913245534 0  -0.1278693585282382 -0.3258058120254715 0  -0.0778823268847101 -0.3412247692636383 0  -0.02615553275524865 -0.349021329013413 0  0.02615553275524853 -0.349021329013413 0  0.07788232688470997 -0.3412247692636383 0  0.1278693585282384 -0.3258058120254714 0  0.1749999999999998 -0.3031088913245537 0  0.2182214306505567 -0.2736410188638104 0  0.2565681551404393 -0.2380604582198217 0  0.2891835710105981 -0.197162020322268 0  0.3153391037658466 -0.1518593086911454 0  0.3344504820251492 -0.1031643110438166 0  0.3460907891787949 -0.05216479316166135 0  0.4 0 0  0.3965779445495242 0.05221047688802063 0  0.3863703305156274 0.1035276180410083 0  0.3695518130045147 0.1530733729460359 0  0.3464101615137755 0.2 0  0.3173413361164941 0.2435045716034883 0  0.2828427124746191 0.282842712474619 0  0.2435045716034883 0.3173413361164941 0  0.2000000000000001 0.3464101615137755 0  0.153073372946036 0.3695518130045147 0  0.1035276180410083 0.3863703305156274 0  0.05221047688802069 0.3965779445495242 0  2.449293598294707e-17 0.4 0  -0.05221047688802064 0.3965779445495242 0  -0.1035276180410083 0.3863703305156274 0  -0.1530733729460358 0.3695518130045148 0  -0.1999999999999999 0.3464101615137755 0  -0.2435045716034883 0.3173413361164941 0  -0.282842712474619 0.2828427124746191 0  -0.3173413361164941 0.2435045716034884 0  -0.3464101615137755 0.2 0  -0.3695518130045147 0.153073372946036 0  -0.3863703305156273 0.1035276180410084 0  -0.3965779445495242 0.0522104768880208 0  -0.4 4.898587196589413e-17 0  -0.3965779445495242 -0.05221047688802071 0  -0.3863703305156274 -0.1035276180410083 0  -0.3695518130045148 -0.1530733729460359 0  -0.3464101615137756 -0.1999999999999999 0  -0.3173413361164941 -0.2435045716034883 0  -0.2828427124746192 -0.2828427124746188 0  -0.2435045716034884 -0.317341336116494 0  -0.2000000000000002 -0.3464101615137753 0  -0.1530733729460358 -0.3695518130045148 0  -0.1035276180410083 -0.3863703305156274 0  -0.05221047688802066 -0.3965779445495242 0  -7.347880794884119e-17 -0.4 0  0.05221047688802051 -0.3965779445495242 0  0.1035276180410081 -0.3863703305156274 0  0.1530733729460357 -0.3695518130045148 0  0.2000000000000001 -0.3464101615137755 0  0.243504571603488 -0.3173413361164943 0  0.282842712474619 -0.2828427124746191 0  0.317341336116494 -0.2435045716034884 0  0.3464101615137753 -0.2000000000000002 0  0.3695518130045148 -0.1530733729460358 0  0.3863703305156272 -0.1035276180410086 0  0.3965779445495242 -0.05221047688802068 0  0.45 0 0  0.4469572609838744 0.05224181135635361 0  0.4378701917609207 0.1037771418340981 0  0.4228616793536588 0.1539090644965509 0  0.4021346881455355 0.201959631090208 0  0.3759695151358214 0.2472790401318627 0  0.3447199994035401 0.2892544243589427 0  0.3088087370409301 0.3273181387078719 0  0.2687213662662538 0.3609554367397697 0  0.2250000000000001 0.3897114317029974 0  0.1782358947176206 0.4131972480961233 0  0.1290614547199906 0.43109528054197 0  0.07814167995011868 0.4431634888554936 0  0.02616517300971406 0.4492386712220707 0  -0.0261651730097141 0.4492386712220707 0  -0.07814167995011854 0.4431634888554937 0  -0.1290614547199906 0.43109528054197 0  -0.1782358947176206 0.4131972480961233 0  -0.2249999999999999 0.3897114317029974 0  -0.2687213662662537 0.3609554367397698 0  -0.3088087370409301 0.327318138707872 0  -0.3447199994035402 0.2892544243589426 0  -0.3759695151358213 0.2472790401318628 0  -0.4021346881455355 0.2019596310902081 0  -0.4228616793536588 0.153909064496551 0  -0.4378701917609207 0.1037771418340982 0  -0.4469572609838744 0.05224181135635346 0  -0.45 5.51091059616309e-17 0  -0.4469572609838744 -0.05224181135635356 0  -0.4378701917609207 -0.103777141834098 0  -0.4228616793536589 -0.1539090644965507 0  -0.40213468814
[...]
<PointData  Vectors="f_12"> 
<DataArray  type="Float64"  Name="f_12"  NumberOfComponents="3" format="ascii">0.0000000000000000e+00 0.0000000000000000e+00 -5.8401211031204685e+00  0.0000000000000000e+00 0.0000000000000000e+00 -6.0816032720048074e+00  0.0000000000000000e+00 0.0000000000000000e+00 -5.9548706346924494e+00  0.0000000000000000e+00 0.0000000000000000e+00 -5.7100310180450826e+00  0.0000000000000000e+00 0.0000000000000000e+00 -5.5925325629379001e+00  0.0000000000000000e+00 0.0000000000000000e+00 -5.7100310180451430e+00  0.0000000000000000e+00 0.0000000000000000e+00 -5.9548706346925080e+00  0.0000000000000000e+00 0.0000000000000000e+00 -6.3163392846535782e+00  0.0000000000000000e+00 0.0000000000000000e+00 -6.2455009877249239e+00  0.0000000000000000e+00 0.0000000000000000e+00 -6.0549075411541056e+00  0.0000000000000000e+00 0.0000000000000000e+00 -5.8032255773367085e+00  0.0000000000000000e+00 0.0000000000000000e+00 -5.5640078560334185e+00  0.0000000000000000e+00 0.0000000000000000e+00 -5.3980609712615273e+00  0.0000000000000000e+00 0.0000000000000000e+00 -5.3394081074463733e+00  0.0000000000000000e+00 0.0000000000000000e+00 -5.3980609712615966e+00  0.0000000000000000e+00 0.0000000000000000e+00 -5.5640078560335304e+00  0.0000000000000000e+00 0.0000000000000000e+00 -5.8032255773368329e+00  0.0000000000000000e+00 0.0000000000000000e+00 -6.0549075411542050e+00  0.0000000000000000e+00 0.0000000000000000e+00 -6.2455009877249807e+00  0.0000000000000000e+00 0.0000000000000000e+00 -6.5436350724418784e+00  0.0000000000000000e+00 0.0000000000000000e+00 -6.4944150249300137e+00  0.0000000000000000e+00 0.0000000000000000e+00 -6.3535252058121268e+00  0.0000000000000000e+00 0.0000000000000000e+00 -6.1409031093007593e+00  0.0000000000000000e+00 0.0000000000000000e+00 -5.8875347134923368e+00  0.0000000000000000e+00 0.0000000000000000e+00 -5.6298690872609818e+00  0.0000000000000000e+00 0.0000000000000000e+00 -5.4014891580676254e+00  0.0000000000000000e+00 0.0000000000000000e+00 -5.2264234713808984e+00  0.0000000000000000e+00 0.0000000000000000e+00 -5.1178627749307637e+00  0.0000000000000000e+00 0.0000000000000000e+00 -5.0812372903286560e+00  0.0000000000000000e+00 0.0000000000000000e+00 -5.1178627749308356e+00  0.0000000000000000e+00 0.0000000000000000e+00 -5.2264234713810298e+00  0.0000000000000000e+00 0.0000000000000000e+00 -5.4014891580677871e+00  0.0000000000000000e+00 0.0000000000000000e+00 -5.6298690872611488e+00  0.0000000000000000e+00 0.0000000000000000e+00 -5.8875347134925065e+00  0.0000000000000000e+00 0.0000000000000000e+00 -6.1409031093009352e+00  0.0000000000000000e+00 0.0000000000000000e+00 -6.3535252058122671e+00  0.0000000000000000e+00 0.0000000000000000e+00 -6.4944150249300998e+00  0.0000000000000000e+00 0.0000000000000000e+00 -6.7627587401192040e+00  0.0000000000000000e+00 0.0000000000000000e+00 -6.7249851772610389e+00  0.0000000000000000e+00 0.0000000000000000e+00 -6.6143719015584317e+00  0.0000000000000000e+00 0.0000000000000000e+00 -6.4392064762719201e+00  0.0000000000000000e+00 0.0000000000000000e+00 -6.2135828325950655e+00  0.0000000000000000e+00 0.0000000000000000e+00 -5.9569301558602294e+00  0.0000000000000000e+00 0.0000000000000000e+00 -5.6919656589083667e+00  0.0000000000000000e+00 0.0000000000000000e+00 -5.4409875077146070e+00  0.0000000000000000e+00 0.0000000000000000e+00 -5.2219409345544827e+00  0.0000000000000000e+00 0.0000000000000000e+00 -5.0463211662345735e+00  0.0000000000000000e+00 0.0000000000000000e+00 -4.9196759585925784e+00  0.0000000000000000e+00 0.0000000000000000e+00 -4.8436961982345252e+00  0.0000000000000000e+00 0.0000000000000000e+00 -4.8184200442067766e+00  0.0000000000000000e+00 0.0000000000000000e+00 -4.8436961982345945e+00  0.0000000000000000e+00 0.0000000000000000e+00 -4.9196759585927081e+00  0.0000000000000000e+00 0.0000000000000000e+00 -5.0463211662347511e+00  0.0000000000000000e+00 0.0000000000000000e+00 -5.2219409345546843e+00  0.0000000000000000e+00 0.0000000000000000e+00 -5.4409875077148300e+00  0.0000000000000000e+00 0.0000000000000000e+00 -5.6919656589085905e+00  0.0000000000000000e+00 0.0000000000000000e+00 -5.9569301558604550e+00  0.0000000000000000e+00 0.0000000000000000e+00 -6.2135828325953009e+00  0.0000000000000000e+00 0.0000000000000000e+00 -6.4392064762721377e+00  0.0000000000000000e+00 0.0000000000000000e+00 -6.6143719015586022e+00  0.0000000000000000e+00 0.0000000000000000e+00 -6.7249851772611331e+00  0.0000000000000000e+00 0.0000000000000000e+00 -6.9729582189069710e+00  0.0000000000000000e+00 0.0000000000000000e+00 -6.9423837959307964e+00  0.0000000000000000e+00 0.0000000000000000e+00 -6.8518707928077802e+00  0.0000000000000000e+00 0.0000000000000000e+00 -6.7052007920354457e+00  0.0000000000000000e+00 0.0000000000000000e+00 -6.5091170280842396e+00  0.0000000000000000e+00 0.0000000000000000e+00 -6.2737391794421988e+00  0.0000000000000000e+00 0.0000000000000000e+00 -6.0125938522237696e+00  0.0000000000000000e+00 0.0000000000000000e+00 -5.7417504519438438e+00  0.0000000000000000e+00 0.0000000000000000e+00 -5.4778269982359635e+00  0.0000000000000000e+00 0.0000000000000000e+00 -5.2353810209418272e+00  0.0000000000000000e+00 0.0000000000000000e+00 -5.0248601327332274e+00  0.0000000000000000e+00 0.0000000000000000e+00 -4.8520438438793612e+00  0.0000000000000000e+00 0.0000000000000000e+00 -4.7189139944079761e+00  0.0000000000000000e+00 0.0000000000000000e+00 -4.6251687832786761e+00  0.0000000000000000e+00 0.0000000000000000e+00 -4.5696371127005353e+00  0.0000000000000000e+00 0.0000000000000000e+00 -4.5512623075016165e+00  0.0000000000000000e+00 0.0000000000000000e+00 -4.5696371127005762e+00  0.0000000000000000e+00 0.0000000000000000e+00 -4.6251687832787773e+00  0.0000000000000000e+00 0.0000000000000000e+00 -4.7189139944081404e+00  0.0000000000000000e+00 0.0000000000000000e+00 -4.8520438438795761e+00  0.0000000000000000e+00 0.0000000000000000e+00 -5.0248601327334681e+00  0.0000000000000000e+00 0.0000000000000000e+00 -5.2353810209420697e+00  0.0000000000000000e+00 0.0000000000000000e+00 -5.4778269982362406e+00  0.0000000000000000e+00 0.0000000000000000e+00 -5.7417504519441156e+00  0.0000000000000000e+00 0.0000000000000000e+00 -6.0125938522240521e+00  0.0000000000000000e+00 0.0000000000000000e+00 -6.2737391794424884e+00  0.0000000000000000e+00 0.0000000000000000e+00 -6.5091170280844910e+00  0.0000000000000000e+00 0.0000000000000000e+00 -6.7052007920356624e+00  0.0000000000000000e+00 0.0000000000000000e+00 -6.8518707928079472e+00  0.0000000000000000e+00 0.0000000000000000e+00 -6.9423837959309029e+00  0.0000000000000000e+00 0.0000000000000000e+00 -7.1734785380572150e+00  0.0000000000000000e+00 0.0000000000000000e+00 -7.1479321513258780e+00  0.0000000000000000e+00 0.0000000000000000e+00 -7.0718497605175541e+00  0.0000000000000000e+00 0.0000000000000000e+00 -6.9469966789094286e+00  0.0000000000000000e+00 0.0000000000000000e+00 -6.7766226830303511e+00  0.0000000000000000e+00 0.0000000000000000e+00 -6.5658769224567655e+00  0.0000000000000000e+00 0.0000000000000000e+00 -6.3222460232870334e+00  0.0000000000000000e+00 0.0000000000000000e+00 -6.0557787612602585e+00  0.0000000000000000e+00 0.0000000000000000e+00 -5.7787537808632425e+00  0.0000000000000000e+00 0.0000000000000000e+00 -5.5045186882948451e+00  0.0000000000000000e+00 0.0000000000000000e+00 -5.2456312809981789e+00  0.0000000000000000e+00 0.0000000000000000e+00 -5.0119879063726440e+00  0.0000000000000000e+00 0.0000000000000000e+00 -4.8097824447347914e+00  0.0000000000000000e+00 0.0000000000000000e+00 -4.6416362748476256e+00  0.0000000000000000e+00 0.0000000000000000e+00 -4.5075548999874160e+00  0.0000000000000000e+00 0.0000000000000000e+00 -4.4061056813535151e+00  0.0000000000000000e+00 0.0000000000000000e+00 -4.3353973103480428e+00  0.0000000000000000e+00 0.0000000000000000e+00 -4.2937320770235825e+00  0.0000000000000000e+00 0.0000000000000000e+00 -4.2799753790425346e+00  0.0000000000000000e+00 0.0000000000000000e+00 -4.2937320770236234e+00  0.0000000000000000e+00 0.0000000000000000e+00 -4.3353973103481325e+00  0.0000000000000000e+00 0.0000000000000000e+00 -4.4061056813536492e+00  0.0000000000000000e+00 0.0000000000000000e+00 -4.5075548999876061e+00  0.0000000000000000e+00 0.0000000000000000e+00 -4.6416362748478592e+00  0.0000000000000000e+00 0.0000000000000000e+00 -4.8097824447350526e+00  0.0000000000000000e+00 0.0000000000000000e+00 -5.0119879063729122e+00  0.0000000000000000e+00 0.0000000000000000e+00 -5.2456312809984711e+00  0.0000000000000000e+00 0.0000000000000000e+00 -5.5045186882951542e+00  0.0000000000000000e+00 0.0000000000000000e+00 -5.7787537808635552e+00  0.0000000000000000e+00 0.0000000000000000e+00 -6.0557787612605978e+00  0.0000000000000000e+00 0.0000000000000000e+00 -6.3222460232873656e+00  0.0000000000000000e+00 0.0000000000000000e+00 -6.5658769224570639e+00  0.0000000000000000e+00 0.0000000000000000e+00 -6.7766226830306175e+00  0.0000000000000000e+00 0.0000000000000000e+00 -6.9469966789096365e+00  0.0000000000000000e+00 0.0000000000000000e+00 -7.0718497605177042e+00  0.0000000000000000e+00 0.0000000000000000e+00 -7.1479321513259695e+00  0.0000000000000000e+00 0.0000000000000000e+00 -7.3635778895155282e+00  0.0000000000000000e+00 0.0000000000000000e+00 -7.3417942839213195e+00  0.0000000000000000e+00 0.0000000000000000e+00 -7.2766871683649539e+00  0.0000000000000000e+00 0.0000000000000000e+00 -7.1690420133184478e+00  0.0000000000000000e+00 0.0000000000000000e+00 -7.0203516664434238e+00  0.0000000000000000e+00 0.0000000000000000e+00 -6.8330960165624921e+00  0.0000000000000000e+00 0.0000000000000000e+00 -6.6111231709287139e+00  0.0000000000000000e+00 0.0000000000000000e+00 -6.3600737242676129e+00  0.0000000000000000e+00 0.0000000000000000e+00 -6.0877027085997648e+00  0.0000000000000000e+00 0.0000000000000000e+00 -5.8038485342960477e+00  0.0000000000000000e+00 0.0000000000000000e+00 -5.5197725795899943e+00  0.0000000000000000e+00 0.0000000000000000e+00 -5.2467980651567867e+00  0.0000000000000000e+00 0.0000000000000000e+00 -4.9946175087967637e+00  0.0000000000000000e+00 0.0000000000000000e+00 -4.7699788485869199e+00  0.0000000000000000e+00 0.0000000000000000e+00 -4.5762967515350521e+00  0.0000000000000000e+00 0.0000000000000000e+00 -4.4141692806074513e+00  0.0000000000000000e+00 0.0000000000000000e+00 -4.2823479844830583e+00  0.0000000000000000e+00 0.0000000000000000e+00 -4.1786962675793813e+00  0.0000000000000000e+00 0.0000000000000000e+00 -4.1009005348141345e+00  0.0000000000000000e+00 0.0000000000000000e+00 -4.0469073463357308e+00  0.0000000000000000e+00 0.0000000000000000e+00 -4.0151547810615371e+00  0.0000000000000000e+00 0.0000000000000000e+00 -4.0046788362601182e+00  0.0000000000000000e+00 0.0000000000000000e+00 -4.0151547810615771e+00  0.0000000000000000e+00 0.0000000000000000e+00 -4.0469073463357903e+00  0.0000000000000000e+00 0.0000000000000000e+00 -4.1009005348142349e+00  0.0000000000000000e+00 0.0000000000000000e+00 -4.1786962675795261e+00  0.0000000000000000e+00 0.0000000000000000e+00 -4.2823479844832670e+00  0.0000000000000000e+00 0.0000000000000000e+00 -4.4141692806076946e+00  0.0000000000000000e+00 0.0000000000000000e+00 -4.5762967515353274e+00  0.0000000000000000e+00 0.0000000000000000e+00 -4.7699788485872165e+00  0.0000000000000000e+00 0.0000000000000000e+00 -4.9946175087970790e+00  0.0000000000000000e+00 0.0000000000000000e+00 -5.2467980651571002e+00  0.0000000000000000e+00 0.0000000000000000e+00 -5.5197725795903176e+00  0.0000000000000000e+00 0.0000000000000000e+00 -5.8038485342963986e+00  0.0000000000000000e+00 0.0000000000000000e+00 -6.0877027086001529e+00  0.0000000000000000e+00 0.0000000000000000e+00 -6.3600737242680010e+00  0.0000000000000000e+00 0.0000000000000000e+00 -6.6111231709290568e+00  0.0000000000000000e+00 0.0000000000000000e+00 -6.8330960165627781e+00  0.0000000000000000e+00 0.0000000000000000e+00 -7.0203516664436654e+00  0.0000000000000000e+00 0.0000000000000000e+00 -7.1690420133186308e+00  0.0000000000000000e+00 0.0000000000000000e+00 -7.2766871683651067e+00  0.0000000000000000e+00 0.0000000000000000e+00 -7.3417942839214110e+00  0.0000000000000000e+00 0.0000000000000000e+00 -7.5425417052855908e+00  0.0000000000000000e+00 0.0000000000000000e+00 -7.5237110482157421e+00  0.0000000000000000e+00 0.0000000000000000e+00 -7.4673059716344543e+00  0.0000000000000000e+00 0.0000000000000000e+00 -7.3736166080928056e+00  0.0000000000000000e+00 0.0000000000000000e+00 -7.2432282976846460e+00  0.0000000000000000e+00 0.0000000000000000e+00 -7.0771858877834077e+00  0.0000000000000000e+00 0.0000000000000000e+00 -6.8772425995738518e+00  0.0000000000000000e+00 0.0000000000000000e+00 -6.6461983004621743e+00  0.0000000000000000e+00 0.0000000000000000e+00 -6.3883032372511908e+00  0.0000000000000000e+00 0.0000000000000000e+00 -6.1096395178169463e+00  0.0000000000000000e+00 0.0000000000000000e+00 -5.8182944480393077e+00  0.0000000000000000e+00 0.0000000000000000e+00 -5.5240599208676526e+00  0.0000000000000000e+00 0.0000000000000000e+00 -5.2374612663563029e+00  0.0000000000000000e+00 0.0000000000000000e+00 -4.9682433385493674e+00  0.0000000000000000e+00 0.0000000000000000e+00 -4.7238685766003083e+00  0.0000000000000000e+00 0.0000000000000000e+00 -4.5086909521809186e+00  0.0000000000000000e+00 0.0000000000000000e+00 -4.3240678430334478e+00  0.0000000000000000e+00 0.0000000000000000e+00 -4.1691345836320846e+00  0.0000000000000000e+00 0.0000000000000000e+00 -4.0417581366113318e+00  0.0000000000000000e+00 0.0000000000000000e+00 -3.9393290014966116e+00  0.0000000000000000e+00 0.0000000000000000e+00 -3.8592826295171827e+00  0.0000000000000000e+00 0.0000000000000000e+00 -3.7993857916215537e+00  0.0000000000000000e+00 0.0000000000000000e+00 -3.7578666650879291e+00  0.0000000000000000e+00 0.0000000000000000e+00 -3.7334587963608028e+00  0.0000000000000000e+00 0.0000000000000000e+00 -3.7254064448447632e+00  0.0000000000000000e+00 0.0000000000000000e+00 -3.7334587963608334e+00  0.0000000000000000e+00 0.0000000000000000e+00 -3.7578666650879744e+00  0.0000000000000000e+00 0.0000000000000000e+00 -3.7993857916216172e+00  0.0000000000000000e+00 0.0000000000000000e+00 -3.8592826295172884e+00  0.0000000000000000e+00 0.0000000000000000e+00 -3.9393290014967715e+00  0.0000000000000000e+00 0.0000000000000000e+00 -4.0417581366115307e+00  0.0000000000000000e+00 0.0000000000000000e+00 -4.1691345836323208e+00  0.0000000000000000e+00 0.0000000000000000e+00 -4.3240678430337338e+00  0.0000000000000000e+00 0.0000000000000000e+00 -4.5086909521812357e+00  0.0000000000000000e+00 0.0000000000000000e+00 -4.7238685766006414e+00  0.0000000000000000e+00 0.0000000000000000e+00 -4.9682433385497013e+00  0.0000000000000000e+00 0.0000000000000000e+00 -5.2374612663566422e+00  0.0000000000000000e+00 0.0000000000000000e+00 -5.5240599208680008e+00  0.0000000000000000e+00 0.0000000000000000e+00 -5.8182944480396932e+00  0.0000000000000000e+00 0.0000000000000000e+00 -6.1096395178173566e+00  0.0000000000000000e+00 0.0000000000000000e+00 -6.3883032372515993e+00  0.0000000000000000e+00 0.0000000000000000e+00 -6.6461983004625651e+00  0.0000000000000000e+00 0.0000000000000000e+00 -6.8772425995742026e+00  0.0000000000000000e+00 0.0000000000000000e+00 -7.0771858877836902e+00  0.0000000000000000e+00 0.0000000000000000e+00 -7.2432282976848796e+00  0.0000000000000000e+00 0.0000000000000000e+00 -7.3736166080929868e+00  0.0000000000000000e+00 0.0000000000000000e+00 -7.4673059716346017e+00  0.0000000000000000e+00 0.0000000000000000e+00 -7.5237110482158229e+00  0.0000000000000000e+00 0.0000000000000000e+00 -7.7096942334900005e+00  0.0000000000000000e+00 0.0000000000000000e+00 -7.6932598113417932e+00  0.0000000000000000e+00 0.0000000000000000e+00 -7.6439644962726172e+00  0.0000000000000000e+00 0.0000000000000000e+00 -7.5618472082125328e+00  0.0000000000000000e+00 0.0000000000000000e+00 -7.4470256241943105e+00  0.0000000000000000e+00 0.0000000000000000e+00 -7.2997843913114959e+00  0.0000000000000000e+00 0.0000000000000000e+00 -7.1207165216296318e+00  0.0000000000000000e+00 0.0000000000000000e+00 -6.9109345552849488e+00  0.0000000000000000e+00 0.0000000000000000e+00 -6.6723665733059017e+00  0.0000000000000000e+00 0.0000000000000000e+00 -6.4081365282727258e+00  0.0000000000000000e+00 0.0000000000000000e+00 -6.1229841056986976e+00  0.0000000000000000e+00 0.0000000000000000e+00 -5.8235935727690409e+00  0.0000000000000000e+00 0.0000000000000000e+00 -5.5185910958115096e+00  0.0000000000000000e+00 0.0000000000000000e+00 -5.2179329189915062e+00  0.0000000000000000e+00 0.0000000000000000e+00 -4.9316008202563530e+00  0.0000000000000000e+00 0.0000000000000000e+00 -4.6679657730896871e+00  0.0000000000000000e+00 0.0000000000000000e+00 -4.4325334282489122e+00  0.0000000000000000e+00 0.0000000000000000e+00 -4.2276134202181810e+00  0.0000000000000000e+00 0.0000000000000000e+00 -4.0528691068021629e+00  0.0000000000000000e+00 0.0000000000000000e+00 -3.9062766564642688e+00  0.0000000000000000e+00 0.0000000000000000e+00 -3.7850336704377061e+00  0.0000000000000000e+00 0.0000000000000000e+00 -3.6862019054912434e+00  0.0000000000000000e+00 0.0000000000000000e+00 -3.6070753090901042e+00  0.0000000000000000e+00 0.0000000000000000e+00 -3.5453498716190914e+00  0.0000000000000000e+00 0.0000000000000000e+00 -3.4991770198511101e+00  0.0000000000000000e+00 0.0000000000000000e+00 -3.4671599546726606e+00  0.0000000000000000e+00 0.0000000000000000e+00 -3.4483288501816243e+00  0.0000000000000000e+00 0.0000000000000000e+00 -3.4421143414984807e+00  0.0000000000000000e+00 0.0000000000000000e+00 -3.4483288501816456e+00  0.0000000000000000e+00 0.0000000000000000e+00 -3.4671599546727081e+00  0.0000000000000000e+00 0.0000000000000000e+00 -3.4991770198511727e+00  0.0000000000000000e+00 0.0000000000000000e+00 -3.5453498716191723e+00  0.0000000000000000e+00 0.0000000000000000e+00 -3.6070753090902223e+00  0.0000000000000000e+00 0.0000000000000000e+00 -3.6862019054914024e+00  0.0000000000000000e+00 0.0000000000000000e+00 -3.7850336704378926e+00  0.0000000000000000e+00 0.0000000000000000e+00 -3.9062766564644966e+00  0.0000000000000000e+00 0.0000000000000000e+00 -4.0528691068024383e+00  0.0000000000000000e+00 0.0000000000000000e+00 -4.2276134202184892e+00  0.0000000000000000e+00 0.0000000000000000e+00 -4.4325334282492257e+00  0.0000000000000000e+00 0.0000000000000000e+00 -4.6679657730900255e+00  0.0000000000000000e+00 0.0000000000000000e+00 -4.9316008202567128e+00  0.0000000000000000e+00 0.0000000000000000e+00 -5.2179329189918882e+00  0.0000000000000000e+00 0.0000000000000000e+00 -5.5185910958119111e+00  0.0000000000000000e+00 0.0000000000000000e+00 -5.8235935727694788e+00  0.0000000000000000e+00 0.0000000000000000e+00 -6.1229841056991390e+00  0.0000000000000000e+00 0.0000000000000000e+00 -6.4081365282731646e+00  0.0000000000000000e+00 0.0000000000000000e+00 -6.6723665733063218e+00  0.0000000000000000e+00 0.0000000000000000e+00 -6.9109345552853236e+00  0.0000000000000000e+00 0.0000000000000000e+00 -7.1207165216299408e+00  0.0000000000000000e+00 0.0000000000000000e+00 -7.2997843913117473e+00  0.0000000000000000e+00 0.0000000000000000e+00 -7.4470256241945201e+00  0.0000000000000000e+00 0.0000000000000000e+00 -7.5618472082127139e+00  0.0000000000000000e+00 0.0000000000000000e+00 -7.6439644962727700e+00  0.0000000000000000e+00 0.0000000000000000e+00 -7.6932598113418997e+00  0.0000000000000000e+00 0.0000000000000000e+00 -7.8644073674523440e+00  0.0000000000000000e+00 0.0000000000000000e+00 -7.8499643458898829e+00  0.0000000000000000e+00 0.0000000000000000e+00 -7.8066050476236741e+00  0.0000000000000000e+00 0.0000000000000000e+00 -7.7342458491336084e+00  0.0000000000000000e+00 0.0000000000000000e+00 -7.6327724858662096e+00  0.0000000000000000e+00 0.0000000000000000e+00 -7.5020830966251291e+00  0.0000000000000000e+00 0.0000000000000000e+00 -7.3421599116333862e+00  0.0000000000000000e+00 0.0000000000000000e+00 -7.1531825882207087e+00  0.0000000000000000e+00 0.0000000000000000e+00 -6.9357011978301069e+00  0.0000000000