<?xml version="1.0"?>
<VTKFile type="UnstructuredGrid"  version="0.1"  >
<UnstructuredGrid>
<Piece  NumberOfPoints="1831" NumberOfCells="8535">
<Points>
<DataArray  type="Float64"  NumberOfComponents="3"  format="ascii">16.49993148994561 -1.880768396013456 0.6565496836806251  16.35072163879516 -1.642773422270631 1.135712567280053  16.97316751763474 -1.663236446854638 1.110584402321246  16.3417830180441 -1.319811795516577 0.5644252770169415  13.80804752997811 -0.70336627954857 -1.866566736919127  13.75457085202117 -0.7762334525379433 -1.321286208026443  13.27711025715969 -1.017510754594011 -1.712985348028406  13.9857341420076 -1.347647203928314 -1.468843160931425  19.38874031075422 1.083537907261187 -0.832348386693325  19.59932380100386 1.467163082357026 -0.524376144285791  20 1.570818608963607 -1.223389760977687  19.51214427251568 1.704258405401219 -1.033837715886713  5.613832758963293 0.8757684676957982 -0.1066207807587346  5.352600694242999 0.3005085705224947 0.4428371525426485  5.874552654481902 0.1312433651018188 0.1917640585186152  6.053676668852106 0.7309299965506205 0.2371128771967839  4.29022619714789 1.896282327586346 0.6054071052011042  4.321105270187252 1.380882417770542 0.6963332997284807  3.935711522883314 1.336389754829933 0.1346574965909457  4.406758884637302 1.993855708568463 0.06238403781552276  10.49173977949802 1.19956652529366 -0.5691184891977074  10.67382321395097 1.908449915733758 -0.5652959426107831  10.99316570398658 1.652568733987094 -1.12377694541931  10.19235530911994 1.818432474741785 -0.8202330561119955  5.970494260826134 0.1118889378082581 0.7502585347494579  6.108364679245366 -0.5950889180295851 0.499716501496127  6.655448412372089 -0.1330813722096306 0.5480862413664158  6.235813616590772 -0.1576652562082987 1.172682068195287  3.633981609972119 1.915004784541031 0.54368743603564  3.790089333729446 1.333510708240951 0.6568795912851444  9.645937175650502 0.3309422566047469 -0.5290386035274481  9.59579688327875 0.1803131389587428 -1.063644495478104  10.29529399981651 -0.2726190580034233 -0.6409548169992586  9.537764384504896 -0.215884293529488 -0.5121267427677582  1.447677489959437 0.4871254573643578 -1.154742638049035  1.411729818002115 -0.06384193707411767 -1.45154452872707  1.911604252377978 0.3588133198007843 -1.468848100300212  2.0090378996918 -0.01539504879912046 -1.043608087846971  16.79994971262249 -0.2410999991269809 -0.1957562309243662  17.15971622347243 -0.1506111972329047 -0.7959209366426263  17.29279257346671 -0.5665700759843221 -0.3035007467406248  16.68519388558441 -0.4401032895599136 -0.7092849167577424  6.200716468819938 -1.160241986927663 -0.1526744813655839  5.632673076699298 -0.5323043777028175 -0.09740103096034171  5.536772135570042 -1.051046946619195 -0.1107760963339846  5.650556488628622 -0.7706764636762558 0.3546268999015718  0.4749974637979845 0.07224101159280877 -1.439518395352151  0.9127874903172504 -0.04786554034250146 -1.067103733253834  0.9879608341751571 0.3627938706685462 -1.410479436951915  0.4435600454998679 0.1662674380401491 -0.8717042772754247  17.81742943824832 1.903452698646412 -0.581769559621943  17.29369790817097 1.885521943903921 -0.6408793363607289  17.74947594414398 1.357843093726978 -0.733839568660537  17.40480454050733 1.209445075315746 -0.304174050336009  8.760870809815367 -0.3844997167028255 0.1815483790561897  8.30563486343569 -0.644213914804012 0.3209311214312865  8.490469861550062 -0.4312681421433985 0.7512365250338225  8.356359614688628 -0.004624126506087567 -0.008887953956033035  17.29084376376817 -0.880548962912022 -0.9067747897690105  17.25127273599657 -0.3508615995053296 -1.422239891058762  17.66480796198321 -1.14131031792123 -1.63817946704307  17.22392955911189 -1.225082172767369 -1.569429682502467  19.29874007831174 -1.2590531925304 0.2911756279490663  18.89108234334318 -1.521422307545931 0.02325345104788556  19.38392943635549 -1.961570560806462 0.3901806440322569  18.78500972596925 -1.967037924943037 0.3346695643824938  14.76747980292004 0.9215188417200045 1.155673702320563  15.29342143792445 1.045344683649885 1.69810780299078  15.28000345698254 1.479128973846558 1.335113904627685  14.9283452611599 1.292429380844047 1.514159257212412  18.35783572926168 -0.3726024878135793 1.46500230735122  17.90585240614143 -0.3011851190306554 1.970335854956376  18.60302517470357 -0.3673253356693649 1.963821612201283  18.35992811527852 0.04369448314686952 1.99569646903592  6.795482912285893 -1.180447114257991 0.3513024334658772  6.176856258973861 -1.012101664567267 0.9991173390676671  6.642392376751167 -0.660864656573802 0.4124021759327614  6.307057685510047 -1.493336425723474 0.3907394873719569  18.26487446611924 -1.880955153030803 0.6559340283020114  18.64210405038334 -1.333066693235692 0.5120046926331195  18.40678419407758 -1.181004108430966 0.9772533334318793  18.70869911403217 -1.597789957550558 1.190525077634625  11.0128425438085 -1.374535347185223 0.4675437352612536  10.38229351061258 -1.359186171328146 0.1978919590358128  10.7258620400683 -1.87069512197752 0.689756817894673  10.59872891416936 -1.006289636321683 0.7336564631043176  17.93281540238587 1.178908209107671 0.8063146949446961  17.98625221667679 1.059305815446904 0.1671770588695203  18.50104823767858 1.206600566752041 0.6122796507867386  18.06222874569108 0.5285667846567899 0.3725630655076445  0.8114661640835568 1.669846618080803 -1.098217641777694  0.8550088656852173 1.16474251423439 -0.7188708381346745  0.4422287495580627 1.333713354997626 -0.8766012495608744  1.055647340731861 1.025602704455049 -1.186159471900336  0 -0.4298523430981485 -0.1740184873338322  0.5483373924094919 -0.5433986122339147 0.1320738197803314  0.5874022158154584 -0.327168868983304 -0.5066335844071415  0 0.1357846545200023 -0.03587348632506848  12.49833103806196 1.220109804029847 -0.6189805761281175  12.68769131175001 1.609718841885001 -1.175989690016774  12.11965788627001 1.75127865828617 -0.9458690100499073  12.62927459419126 1.923579228912279 -0.515421281056522  2.025095626159393 -0.5307776708921594 -1.314095135459461  1.478960287026192 -0.5927791473570327 -1.121917225888758  13.60665876688433 -0.4750678832294313 1.418477439779643  14.01812894032373 -0.7881943745867903 1.224389500055044  14.13755233038316 -1.028590966658548 1.707062851291214  13.60762563447186 -1.064940924250118 1.687633394167181  6.372074367904469 -0.656481681917068 1.382069142283039  6.090146856367305 -0.9934970069520523 1.725820963558943  6.153704044134281 -0.2691424581373389 1.973491781595057  5.700553515438092 -0.2492288362215718 1.46255420652327  8.137618252169581 -0.1057268201371804 -0.6181201295303167  8.139298389273272 -0.4374185071141121 -1.215248096464808  7.598060659176544 -0.8270976243414601 -0.8995082169141984  7.583974067859875 -0.03531683905326422 -0.9612730602112716  17.30160893242274 0.03439581338743525 -0.01444483696483168  17.2251279777477 -0.6970054989682597 0.3380729825222267  17.20126000480063 -0.1929456468615409 0.7044120184376903  16.76696147076185 0.01377134702007246 0.3473388674521941  2.257602997825511 -1.937365159094686 0.469975159745859  2.322262577477282 -1.047609924556523 0.573785798857692  2.111651893669903 -1.48252658836948 0.1000336440514905  1.775779547127167 -1.339080075917705 0.4689562062839108  15.35895210158753 0.4602728221349679 -1.354434202376887  15.3333594687811 0.08000848585026427 -1.992119851948126  14.74480397842134 0.07618751144003111 -1.386813947465801  14.87802985464551 0.1999569788610417 -1.980305956540917  16.38363977037681 0.3591351827769452 -1.964628271853367  16.54476370666067 -0.001767981856132361 -1.542866219710064  16.81290848216476 -0.2758135936953686 -1.97283473209196  16.86294043569226 0.220716453894102 -1.978261326711953  14.10496574117252 0.1710172238401442 1.501367939115309  14.50480246469828 0.27850361898669 0.8182554498230449  13.76208888919575 0.3469775723611537 1.150034107106213  14.44054532991504 0.5471036225018612 1.367549398739232  5.023742006172142 0.9501125921875735 0.1207451720311115  5.448047798102235 0.8954757648360835 0.4108036519278451  5.24469336761423 1.405093680451357 0.0143157826330006  6.732443907035282 -1.450281017106601 -0.1884694994744183  6.953146888504273 -1.931774818920957 0.488404041536321  6.253923282606937 -1.990702543323044 0.09439866181254931  17.61666949728619 -1.308014120614388 -0.6662941018038387  17.90807588204208 -0.8620506590008178 -0.4813638410792598  17.25883282603383 -1.220735190843342 -0.2392863774854509  16.66172463284484 -0.9078196670016596 0.8402331852961932  16.553956572608 -1.291496209923834 1.514925090794849  10.0690662811758 -0.3654176882609638 1.110745699736968  10.14089389060112 0.1719182118970981 1.41043889578273  10.64244160110934 -0.1912918763205383 1.395161044773954  10.68898363332832 0.04072819478239512 0.8382997091732987  15.24906399858133 0.9306612513605415 -1.75940737465849  15.25107336155418 1.186744994302284 -0.8677386414355736  14.90358685112388 0.6687223770299302 -0.9716350232585116  4.426755526912554 -0.5241825677330839 -0.3550178349577726  4.489968204340704 -1.14240396223123 -0.8665621686384888  3.93507707693505 -0.8805582038006637 -0.6688272932067711  4.309897788131159 -0.5266921354914182 -0.912078706655278  1.977138000724876 1.485427152894105 -0.04966545425998908  1.44551974708248 1.324641786691852 -0.2522513042164342  1.41751263800029 1.981917560025788 0.1835940940818875  1.783779270188477 1.963957430006212 -0.3659463543542448  16.19093455576417 0.5899445442622586 1.416064504953993  15.6545708110199 0.3574933836621574 1.463400182170799  16.19532950706065 0.5082779015242156 1.925746149403153  15.68643502699351 0.7027492834813946 1.866753900629906  19.03219060422183 1.333997146053317 -0.4141706308542998  19.54048051559014 1.061967279874952 -0.3364388328098193  18.92394689886296 0.7485445150675948 -0.496391639748805  11.28020521707102 1.200157282519057 -0.3771637975139662  11.00893957632483 1.112991122961772 -1.002609701491911  10.82414062594093 1.490140876348394 -0.2200563687307889  3.35876748757884 1.01407
[...]
<PointData  Vectors="Displacement"> 
<DataArray  type="Float64"  Name="Displacement"  NumberOfComponents="3" format="ascii">2.0750847321268978e-01 4.8675688384757602e-03 -3.7455216753284937e+00  3.5823182668845993e-01 4.7711096786313733e-03 -3.6982780387507512e+00  3.5117585778539145e-01 5.0052545613244754e-03 -3.8954842980955013e+00  1.7804174199653119e-01 4.8237339165701472e-03 -3.6953836556213058e+00  -5.7366200929603151e-01 4.2244478818564022e-03 -2.8993127348049814e+00  -4.0477187865513098e-01 4.1257776284354414e-03 -2.8826297287751794e+00  -5.2161125045927725e-01 3.9998335207351438e-03 -2.7350923844678179e+00  -4.5224770377934398e-01 4.2252832474809609e-03 -2.9546199855206141e+00  -2.6369713224656532e-01 6.1437254085191725e-03 -4.6612618174909137e+00  -1.6639203793949403e-01 6.1683276219735581e-03 -4.7278875450081355e+00  -3.8775436979085570e-01 6.4783659440876334e-03 -4.8547983453852304e+00  -3.2779729738421787e-01 6.2457820129655523e-03 -4.7002297916488383e+00  -2.0555069416498963e-02 8.5664376431386277e-04 -6.6971897904283839e-01  8.4084270779182485e-02 6.2116839525029209e-04 -6.1627667403274844e-01  3.8989068659625120e-02 8.0215240868269032e-04 -7.2408181613912215e-01  4.9395978634637926e-02 8.9012220983117547e-04 -7.6224899385758893e-01  9.7751852300372408e-02 5.6663822542799935e-04 -4.1930673829974346e-01  1.1318961224899098e-01 4.4367361774424763e-04 -4.2435205945234061e-01  1.9605932483408361e-02 4.3037450206988314e-04 -3.5902750346522649e-01  1.0956645137923030e-02 5.3749572680134071e-04 -4.3917383775302943e-01  -1.6099353519701698e-01 2.9177928433624959e-03 -1.9018959397921791e+00  -1.6197769539669540e-01 2.9829337479336630e-03 -1.9543746717567796e+00  -3.2381834567291368e-01 3.2172141211026265e-03 -2.0471046758788911e+00  -2.3023228834298679e-01 2.8224852856475243e-03 -1.8159882874007816e+00  1.5439908425324950e-01 7.4351258258142667e-04 -7.4504522900512871e-01  1.0406345739189202e-01 7.7749015973789331e-04 -7.7465193707677826e-01  1.2024776627977286e-01 1.1229721429493486e-03 -8.9644305920321610e-01  2.4897303285754677e-01 8.6962458106560605e-04 -8.0238242198550347e-01  8.1766614591924858e-02 4.3154165156656716e-04 -3.1170269264673234e-01  9.7241705221825722e-02 4.3995177593677106e-04 -3.3604272221164277e-01  -1.4308091388640803e-01 2.4308380877148313e-03 -1.6624639470256186e+00  -2.8823284126527438e-01 2.5362885066231274e-03 -1.6483260436455565e+00  -1.7863893927942082e-01 2.7453209266174571e-03 -1.8455895265285032e+00  -1.3743771320330911e-01 2.3402499821535139e-03 -1.6326866305435033e+00  -7.2630105801130829e-02 -1.9599300159892771e-04 -6.1334616975453629e-02  -8.9051666060435047e-02 -1.6185321397661374e-04 -5.9666278239504530e-02  -1.1967243586867737e-01 -8.6064633918953484e-05 -1.0011968555059984e-01  -8.7489111618411816e-02 2.1642243263297778e-04 -1.0920961353986577e-01  -6.1447407141919215e-02 5.0744309334821098e-03 -3.8403337201950811e+00  -2.5077155801873663e-01 5.3008057866864560e-03 -3.9544316818224523e+00  -9.5393187937977714e-02 5.2751278588347231e-03 -3.9966904794922407e+00  -2.2295267555649328e-01 5.1148666249834938e-03 -3.8040459186201296e+00  -3.1194782256467293e-02 1.0372426507772264e-03 -7.9538261920299280e-01  -1.8569584453677498e-02 7.2015105674459300e-04 -6.7357859023510536e-01  -2.1592639972903789e-02 9.5843935407565676e-04 -6.5408324139448359e-01  7.0972293308500065e-02 8.4726105927124186e-04 -6.7797078921788134e-01  -3.0785849507009504e-02 -4.2776824646338288e-05 -1.0139822479278710e-02  -4.3750342326934331e-02 -1.2330332224762730e-04 -2.8690513215351522e-02  -6.0245139586482505e-02 -3.2052006804562342e-04 -3.2279033227639260e-02  -1.6800025064956984e-02 1.2760250671878249e-05 -8.7949854690670057e-03  -1.8455111975207594e-01 5.5465572696346901e-03 -4.1627228931906552e+00  -2.0299888192924093e-01 5.3722749598435048e-03 -3.9965818055699822e+00  -2.3228337910433450e-01 5.5470874548958441e-03 -4.1412763430832822e+00  -9.6327151482159798e-02 5.3377769923285282e-03 -4.0319415909089740e+00  4.6365672168488567e-02 2.0916532376900761e-03 -1.4213765008822001e+00  8.1791860486984988e-02 1.7504382013781483e-03 -1.3015962870402402e+00  1.9189535879612307e-01 1.8494839369821345e-03 -1.3498534810423708e+00  -2.6946145564567142e-03 1.9221677011660701e-03 -1.3148338898890390e+00  -2.8566410313440260e-01 5.3467026957996515e-03 -3.9961531687255212e+00  -4.4856825707170389e-01 5.4155713997075449e-03 -3.9835476810727672e+00  -5.1737523879235026e-01 5.5713555133794883e-03 -4.1148501310564631e+00  -4.9509045156805193e-01 5.4061627220623361e-03 -3.9749941571361935e+00  9.2700337838201044e-02 5.9153556173591297e-03 -4.6330863311533532e+00  8.0112258630532680e-03 5.7982273941958066e-03 -4.5038800836702775e+00  1.2433135794226291e-01 5.9358856310406079e-03 -4.6601567317943058e+00  1.0676210659367114e-01 5.7273240172377657e-03 -4.4703083780025725e+00  3.5869741559804863e-01 4.1210376368302579e-03 -3.1985728913641198e+00  5.3064400251459820e-01 4.2021384322153306e-03 -3.3639113227577426e+00  4.1697093323300366e-01 4.2283593112428484e-03 -3.3596232651850806e+00  4.7154426431120500e-01 4.0778293734486442e-03 -3.2490351242171527e+00  4.6361209582025209e-01 5.4039669106297761e-03 -4.3346373967783407e+00  6.2336350672344720e-01 5.1575739338807170e-03 -4.1912434855736640e+00  6.2181426231829806e-01 5.4100737960730838e-03 -4.4124240120957259e+00  6.3162306450028449e-01 5.2933259224891317e-03 -4.3352528700540569e+00  7.9231724086151825e-02 1.1786146483911868e-03 -9.2940080767345878e-01  2.1241912254460013e-01 8.4292171574204620e-04 -7.8958960837140135e-01  9.0612460601463191e-02 9.6430670274290668e-04 -8.9371866159611690e-01  8.4275611540665249e-02 1.0294802389696908e-03 -8.1905261682722585e-01  2.0834677836473472e-01 5.5103497984093953e-03 -4.3053138171393703e+00  1.6255846174982322e-01 5.6569777682356718e-03 -4.4249073996117412e+00  3.0964373453245964e-01 5.5119490881829344e-03 -4.3502506567794832e+00  3.7749538882096684e-01 5.6035801871742843e-03 -4.4460733881314338e+00  1.3483884927785189e-01 3.0818388309139470e-03 -2.0533932939420172e+00  5.6206520525486622e-02 2.7695045028223769e-03 -1.8706516540821982e+00  1.9784223187592279e-01 2.9058642267507551e-03 -1.9698813115013289e+00  2.0799041865479084e-01 2.8247356468344945e-03 -1.9326906183139929e+00  2.5454304372384795e-01 5.2978213127828824e-03 -4.1994933163316777e+00  5.2560660278286715e-02 5.4511404231619761e-03 -4.2164504659736979e+00  1.9333955776373712e-01 5.5378539510986327e-03 -4.3797685419879464e+00  1.1762795674694221e-01 5.4365599632698793e-03 -4.2406616132236250e+00  -4.0968281257801296e-02 -7.7251280416919526e-04 -2.3735364287585090e-02  -2.7024635273322588e-02 -5.0297632664022954e-04 -2.5262402564222478e-02  -1.6691654213119113e-02 -3.0220368175850866e-04 -1.0557283805141060e-02  -5.6055072063665730e-02 -1.9376957694623137e-04 -3.6028342701406223e-02  0.0000000000000000e+00 0.0000000000000000e+00 0.0000000000000000e+00  3.9816571504331776e-03 -6.9083566427861499e-05 -1.3074626684538885e-02  -1.2106529473112549e-02 -1.1941654066301769e-04 -1.4289594699806184e-02  0.0000000000000000e+00 0.0000000000000000e+00 0.0000000000000000e+00  -1.8573446133639365e-01 3.5970791127753858e-03 -2.4965503887274405e+00  -3.5499091173178077e-01 3.7897568725410832e-03 -2.5541236833074934e+00  -2.8209910284601764e-01 3.5068509792438797e-03 -2.3818300705251270e+00  -1.5578625918986225e-01 3.6292360986399518e-03 -2.5364265343002739e+00  -1.1213939717664953e-01 1.9388839775706846e-04 -1.1101809527569259e-01  -7.0147033577345100e-02 3.2220922208729113e-05 -6.4895694779594879e-02  4.3419117940129454e-01 3.7235390304928315e-03 -2.8368928006317615e+00  3.7718665006877461e-01 3.9484120528208069e-03 -2.9647065429652892e+00  5.2780084285344164e-01 3.8925135437975870e-03 -3.0019421033314506e+00  5.1786688563222183e-01 3.7379889124160796e-03 -2.8373338222412419e+00  2.9813168829357672e-01 8.7858157868482762e-04 -8.3241297124657532e-01  3.6348171182127342e-01 4.4164785062477747e-04 -7.7064712626054199e-01  4.1915836305795923e-01 6.6408683959607196e-04 -7.8377392524061473e-01  2.9328232308955676e-01 7.2163105664310072e-04 -6.8741972771757620e-01  -1.5350999396062162e-01 1.9647398436342957e-03 -1.2580655948501824e+00  -3.0268745061724728e-01 1.9668487440512132e-03 -1.2587430923919061e+00  -2.1542675874257897e-01 1.7270019448161315e-03 -1.1223917603485190e+00  -2.2970098903810435e-01 1.6249718619979394e-03 -1.1183759502394628e+00  -4.4591177856093244e-03 5.2366867210467682e-03 -3.9994076288319222e+00  1.0692374883270120e-01 5.1573769450684332e-03 -3.9752568179416095e+00  2.2225330036694549e-01 5.0913696357962465e-03 -3.9676179676974366e+00  1.0943740401416463e-01 4.9899542399456809e-03 -3.8298606906297503e+00  4.6462233115927502e-02 -2.7931493700192116e-04 -1.3502996719495808e-01  5.5989486978983642e-02 2.3939617808933498e-04 -1.4164069195580886e-01  1.0107893295414326e-02 1.9733550087533584e-04 -1.1916127794995064e-01  3.4970527625191497e-02 6.4753796808838537e-05 -8.8168533803550012e-02  -4.2300114194903299e-01 4.7656005823640338e-03 -3.3847396452473069e+00  -6.2295445300904284e-01 4.8169905402505207e-03 -3.3767233383507826e+00  -4.3048683509306207e-01 4.5362475483844283e-03 -3.1917207758749004e+00  -6.1692460369897451e-01 4.6910153101268328e-03 -3.2335286148922111e+00  -6.1858512569314483e-01 5.2533515601865160e-03 -3.7084704542375695e+00  -4.8558867521028182e-01 5.2051587291002139e-03 -3.7595176958242877e+00  -6.2200826947526455e-01 5.3638072626606250e-03 -3.8445167377535294e+00  -6.2401918544533075e-01 5.4014110954220228e-03 -3.8603492702931552e+00  4.6278079342209116e-01 3.8805803298990068e-03 -2.9915491306086821e+00  2.5306142564313938e-01 4.1052556352689064e-03 -3.1163304266293230e+00  3.5235651806798052e-01 3.8109167584118777e-03 -2.8849196451042629e+00  4.2305801547185956e-01 3.9920484580788403e-03 -3.0962688902186066e+00  2.1866890452148204e-02 6.0884202643529564e-04 -5.5250365620824804e-01  7.9429246547074672e-02 5.2550925846009107e-04 -6.3513170676472197e-01  3.0758248298067658e-03 5.4511216405955419e-04 -5.9516411073542452e-01  -4.1418389420795253e-02 1.1299150875089168e-03 -9.1486449598087671e-01  1.1244535441694101e-01 1.0781789646860953e-03 -9.6651997134055090e-01  2.0901748985860787e-02 8.4491229061131796e-04 -8.0677878958409421e-01  -2.0989950853267300e-01 5.4182493416857023e-03 -4.0995642735896523e+00  -1.5168743079924843e-01 5.5137169099288693e-03 -4.1919593099121872e+00  -7.4946978760708008e-02 5.2412398800725599e-03 -3.9860248248873558e+00  2.6484214349230067e-01 4.8983094525751831e-03 -3.7966940506679410e+00  4.7794565943624912e-01 4.7653780026766903e-03 -3.7625908895149571e+00  3.0737672635711544e-01 2.4175611514872476e-03 -1.7812669039708413e+00  3.9194746543517589e-01 2.3553836470505385e-03 -1.8018561804432753e+00  3.9592383349825866e-01 2.7484826812018987e-03 -1.9452708504426550e+00  2.3803254144403513e-01 2.7297738868486150e-03 -1.9588040246105538e+00  -5.4998420410372262e-01 4.8353858452705152e-03 -3.3499702852572844e+00  -2.7111821313611495e-01 4.6815727394645956e-03 -3.3505407667077929e+00  -3.0202052424540476e-01 4.5487369985473128e-03 -3.2413149462220887e+00  -5.8477215233094355e-02 6.1694104138409144e-04 -4.4220799461052773e-01  -1.4474254867610684e-01 8.2958649866112703e-04 -4.5349669700504375e-01  -1.0205579475439681e-01 4.8556977205075854e-04 -3.5894522566362153e-01  -1.4736344835102455e-01 5.7442791825145737e-04 -4.2145329552247773e-01  -3.1662514735594271e-03 3.1961318725555606e-04 -1.0676115318249116e-01  -1.5628961683246033e-02 7.6846477595874418e-05 -6.1488126771392759e-02  1.2047156600914799e-02 -1.3832244453814232e-05 -5.9696327627122077e-02  -2.9632792436307544e-02 3.4617692521088513e-04 -8.9108868815181166e-02  4.4480490981313592e-01 4.5869296217445725e-03 -3.6473725753209383e+00  4.5817402843531407e-01 4.4020061049019552e-03 -3.4779547385198084e+00  6.0571969795666536e-01 4.5424285283646032e-03 -3.6488224575940342e+00  5.8513082088108903e-01 4.3365978321511589e-03 -3.4880225951029775e+00  -1.3142812003888596e-01 5.9385941881659327e-03 -4.5481887975045829e+00  -1.0673351491481599e-01 6.1016559188802784e-03 -4.7093238435416929e+00  -1.5718009679944217e-01 5.9068440330705650e-03 -4.5139700829864253e+00  -1.0985503918958076e-01 3.1357384833097914e-03 -2.1313150355220252e+00  -2.8802940588321280e-01 3.2032903961200731e-03 -2.0519994892983293e+00  -6.3411479829223960e-02 2.9953366722089221e-03 -1.9976828572094405e+00  9.6460086192177261e-02 4.4011070160329517e-04 -2.7081831298419301e-01  5.5508093274885609e-02 6.3853488869507365e-04 -2.1170437626362532e-01  1.3017577590456864e-01 6.7702916496218530e-04 -2.5753624508707079e-01  4.8345230405087015e-02 5.7235003019215271e-04 -2.7617349895579790e-01  3.3362657035569621e-01 5.1130084812094460e-03 -4.0772093145132704e+00  4.0640099473049041e-01 5.2507593196667096e-03 -4.2385940132343851e+00  4.6054797937979608e-01 5.0300843693342921e-03 -4.0685325254719240e+00  7.9102588327742418e-02 2.9756969115428025e-03 -2.0686931446131189e+00  2.4045805259701858e-01 2.6312676418589237e-03 -1.9242665675902018e+00  9.7613605300159764e-02 2.8720019070854071e-03 -1.9989794837188120e+00  1.1730612283907037e-01 2.6786022334140441e-03 -1.9396866439711495e+00  1.3437891075602199e-01 4.3670269440750989e-03 -3.2998334451852114e+00  3.9403743372890998e-01 4.2262397096680072e-03 -3.2852165357872241e+00  2.3724099697429971e-01 4.3093203828032988e-03 -3.3143568006329582e+00  -1.4280380379406016e-01 3.4483271876713250e-04 -2.6191835401603691e-01  -1.1562280228685232e-01 4.7488204535623568e-04 -3.1175828167713043e-01  -1.9746461095274442e-01 3.7647062454132616e-04 -2.6253059546682683e-01  -1.4673364768151434e-01 4.9735624488506385e-04 -2.6458398284418194e-01  3.9657239032819147e-02 -4.4900035409359593e-04 -3.8365067430176064e-02  5.9337818358932294e-02 -4.4057376758015616e-04 -3.4004498529116155e-02  2.6283482124320481e-02 -2.4110277691217320e-04 -1.5760041528480082e-02  4.6743117378086223e-02 -2.3585387389094591e-04 -4.6812808425086276e-02  -3.2305315534095180e-01 5.4774739624245204e-03 -4.0861036798141068e+00  -3.6851205623033112e-01 5.5862042438965124e-03 -4.1804082701728982e+00  4.2179693554220965e-01 4.8264913042216960e-03 -3.8372708561503788e+00  3.0051850534201069e-01 4.8476439799028060e-03 -3.7788177038849580e+00  4.3899171140032639e-01 4.9342566735429173e-03 -3.8992220285977255e+00  4.3452619303838491e-01 4.5756218067346515e-03 -3.6195865680519366e+00  3.4184826842579247e-01 5.7155912168036227e-03 -4.5732158065097757e+00  4.9201212191384258e-01 5.5484662976691057e-03 -4.4925176844240937e+00  4.7401430352368368e-01 5.5568211096890720e-03 -4.5167814687653722e+00  4.0543303719354423e-01 5.4458316781451684e-03 -4.3709619927023908e+00  -1.4555892052430319e-01 3.0201697626093120e-04 -1.7730184086844536e-01  -1.0527140397259524e-01 1.6679528711540599e-04 -1.3598987449060271e-01  -6.7993734770351102e-02 3.6594105788428829e-04 -1.7058806955087977e-01  -3.1104621374278756e-02 4.5617105867923518e-03 -3.3996386070315734e+00  -4.7340150803329172e-02 4.3712826999643458e-03 -3.2168737852344380e+00  -7.4692612738941136e-02 4.3610500342202941e-03 -3.2068764193113681e+00  9.2189530782143578e-02 4.4344655978551884e-03 -3.3146544316733091e+00  -5.6998937109830936e-02 3.4862094119692691e-03 -2.4442395243266728e+00  -1.1667995776713577e-01 3.3550586433811424e-03 -2.3176732646884219e+00  -3.0739549631199353e-01 2.3603587425574815e-03 -1.5778076725781194e+00  -1.9195992755365793e-01 2.5399599744453400e-03 -1.6327893940819591e+00  -3.3826880008216337e-01 2.2879637219030990e-03 -1.4894595072700485e+00  2.1629668872990848e-01 6.6932340427510882e-04 -6.9777112278197118e-01  1.8881402795645627e-01 6.0277798027228498e-04 -6.3715700550604837e-01  2.9162596533016505e-01 6.4196802741510006e-04 -7.3924204202155253e-01  2.7242762847078666e-01 1.7600145470441717e-04 -6.2135424245275384e-01  -2.2469465839538495e-02 -4.6373357733883828e-05 -8.0322230618923421e-02  -3.1194955395687639e-02 1.5193981819021661e-04 -6.5590208800600347e-02  -4.3245487750086561e-02 3.0277449951955063e-04 -1.1064638140083269e-01  8.0998266824811704e-02 -2.0337934271241030e-04 -6.8273315245912236e-02  9.3031224801096407e-02 2.1038597773407681e-04 -1.2178500872193782e-01  8.5008172313551761e-02 7.5880256726511440e-05 -5.9924063263722745e-02  1.3290714539424103e-01 1.4287928344975480e-04 -1.1605317557436154e-01  -2.2228096435412945e-02 3.6686630683170464e-05 -3.0759390278381645e-02  -2.2854518914871058e-02 -2.1703952417951797e-04 -4.1982547097198418e-02  6.0660641111449316e-02 2.4770692691092149e-04 -1.7408322740025159e-01  1.3680661774871603e-01 3.7928654575366589e-04 -2.4643933165991322e-01  1.5626443885179719e-01 1.1209984344742036e-05 -1.8563007846457821e-01  7.8894456273958899e-02 4.5322242954244293e-04 -2.0660440078163228e-01  9.9065421110730995e-02 4.0284534200591780e-03 -2.9864124330824162e+00  7.2327952723454908e-02 4.1249550906707743e-03 -3.0657425457451253e+00  -1.7464851464191227e-02 4.0468659681515097e-03 -2.9409786251742220e+00  1.6602568806660076e-01 3.8221328702988302e-03 -2.8180465608403886e+00  1.6034407639105148e-02 1.9192277259543871e-04 -1.5106815595397019e-02  1.5915990721406738e-02 7.6375565147229402e-05 -1.1171875340907791e-02  0.0000000000000000e+00 0.0000000000000000e+00 0.0000000000000000e+00  0.0000000000000000e+00 0.0000000000000000e+00 0.0000000000000000e+00  2.6910606856695659e-02 -1.4614943228623956e-04 -1.7347801065117874e-01  -2.0900450416336879e-02 5.0879782338355969e-05 -1.2432044973785965e-01  9.8270479943847952e-02 4.4251350951093112e-03 -3.3437632459111648e+00  2.1684164231688077e-01 4.3634090329601636e-03 -3.2696975732683602e+00  6.5518824105021814e-02 4.2885806120580433e-03 -3.1389676002815188e+00  -9.7090260243364354e-02 3.3982405363354408e-03 -2.3300054485919803e+00  -6.2781771288533839e-03 3.2860073046250956e-03 -2.2886744894546718e+00  2.3816578418769149e-02 3.4162172747433956e-03 -2.4228482774490834e+00  -1.8004310062663828e-02 5.5335733973311697e-03 -4.2566861909669313e+00  1.5890346556111493e-01 5.6118133945212345e-03 -4.4017582898612675e+00  1.7448483440752848e-02 5.6625063918765723e-03 -4.3877605121832515e+00  1.3901974376189408e-01 -4.9836866197717349e-05 -1.2771332192396415e-01  -3.5720435294786623e-01 6.1101634168091359e-03 -4.6072471936000321e+00  -6.2795572754569029e-01 6.2394476180624783e-03 -4.6059688833198233e+00  -4.8889104115894383e-01 6.2824793358740747e-03 -4.7015816006707247e+00  -4.3554810036880354e-01 5.9472173567721061e-03 -4.4394718352770584e+00  -1.3421602650306917e-02 1.2746248806599802e-04 -1.4986031262612154e-01  -4.3829889076038131e-02 1.9923992126676822e-05 -1.0721398734914814e-01  -4.4328649315549584e-02 3.0688706857073865e-04 -1.0993012617977294e-01  -7.6819268788293232e-02 3.7456924413466989e-04 -2.0010450727288034e-01  5.8587499131658094e-01 5.3144977975349457e-03 -4.2937029462072314e+00  4.5166093804940399e-01 5.2228587502298578e-03 -4.1655489586284338e+00  5.2998418920815815e-01 5.1910030325666434e-03 -4.1500850618039831e+00  5.9498955134662201e-01 5.0269724309027763e-03 -4.0493499864533602e+00  -9.6571220297161683e-02 4.2205890750027507e-04 -3.2600828646496716e-01  -1.2712344578017612e-01 5.5887116716468895e-04 -3.1386282370590846e-01  -5.8464787352346337e-02 5.0269835749133080e-04 -2.9360537778450657e-01  -2.9371307091036695e-02 6.0274642964855364e-04 -2.5623305362072207e-01  -3.1522810495175502e-01 1.1604161586426279e-03 -8.3692416229519118e-01  -2.4129882915620177e-01 1.2681705717565077e-03 -8.9981573068832799e-01  -2.8901748734548549e-01 1.3439805180486346e-03 -9.1563926317020672e-01  -1.5954886376759742e-01 1.2105855495977906e-03 -8.6633894362131525e-01  -9.4693533635542476e-02 6.1298511246604115e-05 -1.5444114976467391e-01  -1.4901378307374927e-01 7.0364693581888895e-05 -1.9421175134286964e-01  -9.9368878722726983e-02 9.4748578313687880e-05 -2.0118464464540514e-01  -1.3762996164772681e-01 -3.2141341760040483e-04 -1.3107264653657705e-01  -1.4129534442604424e-01 4.6973731204559473e-04 -7.6288603