<?xml version="1.0"?>
<VTKFile type="UnstructuredGrid"  version="0.1"  >
<UnstructuredGrid>
<Piece  NumberOfPoints="1831" NumberOfCells="8535">
<Points>
<DataArray  type="Float64"  NumberOfComponents="3"  format="ascii">16.49993148994561 -1.880768396013456 0.6565496836806251  16.35072163879516 -1.642773422270631 1.135712567280053  16.97316751763474 -1.663236446854638 1.110584402321246  16.3417830180441 -1.319811795516577 0.5644252770169415  13.80804752997811 -0.70336627954857 -1.866566736919127  13.75457085202117 -0.7762334525379433 -1.321286208026443  13.27711025715969 -1.017510754594011 -1.712985348028406  13.9857341420076 -1.347647203928314 -1.468843160931425  19.38874031075422 1.083537907261187 -0.832348386693325  19.59932380100386 1.467163082357026 -0.524376144285791  20 1.570818608963607 -1.223389760977687  19.51214427251568 1.704258405401219 -1.033837715886713  5.613832758963293 0.8757684676957982 -0.1066207807587346  5.352600694242999 0.3005085705224947 0.4428371525426485  5.874552654481902 0.1312433651018188 0.1917640585186152  6.053676668852106 0.7309299965506205 0.2371128771967839  4.29022619714789 1.896282327586346 0.6054071052011042  4.321105270187252 1.380882417770542 0.6963332997284807  3.935711522883314 1.336389754829933 0.1346574965909457  4.406758884637302 1.993855708568463 0.06238403781552276  10.49173977949802 1.19956652529366 -0.5691184891977074  10.67382321395097 1.908449915733758 -0.5652959426107831  10.99316570398658 1.652568733987094 -1.12377694541931  10.19235530911994 1.818432474741785 -0.8202330561119955  5.970494260826134 0.1118889378082581 0.7502585347494579  6.108364679245366 -0.5950889180295851 0.499716501496127  6.655448412372089 -0.1330813722096306 0.5480862413664158  6.235813616590772 -0.1576652562082987 1.172682068195287  3.633981609972119 1.915004784541031 0.54368743603564  3.790089333729446 1.333510708240951 0.6568795912851444  9.645937175650502 0.3309422566047469 -0.5290386035274481  9.59579688327875 0.1803131389587428 -1.063644495478104  10.29529399981651 -0.2726190580034233 -0.6409548169992586  9.537764384504896 -0.215884293529488 -0.5121267427677582  1.447677489959437 0.4871254573643578 -1.154742638049035  1.411729818002115 -0.06384193707411767 -1.45154452872707  1.911604252377978 0.3588133198007843 -1.468848100300212  2.0090378996918 -0.01539504879912046 -1.043608087846971  16.79994971262249 -0.2410999991269809 -0.1957562309243662  17.15971622347243 -0.1506111972329047 -0.7959209366426263  17.29279257346671 -0.5665700759843221 -0.3035007467406248  16.68519388558441 -0.4401032895599136 -0.7092849167577424  6.200716468819938 -1.160241986927663 -0.1526744813655839  5.632673076699298 -0.5323043777028175 -0.09740103096034171  5.536772135570042 -1.051046946619195 -0.1107760963339846  5.650556488628622 -0.7706764636762558 0.3546268999015718  0.4749974637979845 0.07224101159280877 -1.439518395352151  0.9127874903172504 -0.04786554034250146 -1.067103733253834  0.9879608341751571 0.3627938706685462 -1.410479436951915  0.4435600454998679 0.1662674380401491 -0.8717042772754247  17.81742943824832 1.903452698646412 -0.581769559621943  17.29369790817097 1.885521943903921 -0.6408793363607289  17.74947594414398 1.357843093726978 -0.733839568660537  17.40480454050733 1.209445075315746 -0.304174050336009  8.760870809815367 -0.3844997167028255 0.1815483790561897  8.30563486343569 -0.644213914804012 0.3209311214312865  8.490469861550062 -0.4312681421433985 0.7512365250338225  8.356359614688628 -0.004624126506087567 -0.008887953956033035  17.29084376376817 -0.880548962912022 -0.9067747897690105  17.25127273599657 -0.3508615995053296 -1.422239891058762  17.66480796198321 -1.14131031792123 -1.63817946704307  17.22392955911189 -1.225082172767369 -1.569429682502467  19.29874007831174 -1.2590531925304 0.2911756279490663  18.89108234334318 -1.521422307545931 0.02325345104788556  19.38392943635549 -1.961570560806462 0.3901806440322569  18.78500972596925 -1.967037924943037 0.3346695643824938  14.76747980292004 0.9215188417200045 1.155673702320563  15.29342143792445 1.045344683649885 1.69810780299078  15.28000345698254 1.479128973846558 1.335113904627685  14.9283452611599 1.292429380844047 1.514159257212412  18.35783572926168 -0.3726024878135793 1.46500230735122  17.90585240614143 -0.3011851190306554 1.970335854956376  18.60302517470357 -0.3673253356693649 1.963821612201283  18.35992811527852 0.04369448314686952 1.99569646903592  6.795482912285893 -1.180447114257991 0.3513024334658772  6.176856258973861 -1.012101664567267 0.9991173390676671  6.642392376751167 -0.660864656573802 0.4124021759327614  6.307057685510047 -1.493336425723474 0.3907394873719569  18.26487446611924 -1.880955153030803 0.6559340283020114  18.64210405038334 -1.333066693235692 0.5120046926331195  18.40678419407758 -1.181004108430966 0.9772533334318793  18.70869911403217 -1.597789957550558 1.190525077634625  11.0128425438085 -1.374535347185223 0.4675437352612536  10.38229351061258 -1.359186171328146 0.1978919590358128  10.7258620400683 -1.87069512197752 0.689756817894673  10.59872891416936 -1.006289636321683 0.7336564631043176  17.93281540238587 1.178908209107671 0.8063146949446961  17.98625221667679 1.059305815446904 0.1671770588695203  18.50104823767858 1.206600566752041 0.6122796507867386  18.06222874569108 0.5285667846567899 0.3725630655076445  0.8114661640835568 1.669846618080803 -1.098217641777694  0.8550088656852173 1.16474251423439 -0.7188708381346745  0.4422287495580627 1.333713354997626 -0.8766012495608744  1.055647340731861 1.025602704455049 -1.186159471900336  0 -0.4298523430981485 -0.1740184873338322  0.5483373924094919 -0.5433986122339147 0.1320738197803314  0.5874022158154584 -0.327168868983304 -0.5066335844071415  0 0.1357846545200023 -0.03587348632506848  12.49833103806196 1.220109804029847 -0.6189805761281175  12.68769131175001 1.609718841885001 -1.175989690016774  12.11965788627001 1.75127865828617 -0.9458690100499073  12.62927459419126 1.923579228912279 -0.515421281056522  2.025095626159393 -0.5307776708921594 -1.314095135459461  1.478960287026192 -0.5927791473570327 -1.121917225888758  13.60665876688433 -0.4750678832294313 1.418477439779643  14.01812894032373 -0.7881943745867903 1.224389500055044  14.13755233038316 -1.028590966658548 1.707062851291214  13.60762563447186 -1.064940924250118 1.687633394167181  6.372074367904469 -0.656481681917068 1.382069142283039  6.090146856367305 -0.9934970069520523 1.725820963558943  6.153704044134281 -0.2691424581373389 1.973491781595057  5.700553515438092 -0.2492288362215718 1.46255420652327  8.137618252169581 -0.1057268201371804 -0.6181201295303167  8.139298389273272 -0.4374185071141121 -1.215248096464808  7.598060659176544 -0.8270976243414601 -0.8995082169141984  7.583974067859875 -0.03531683905326422 -0.9612730602112716  17.30160893242274 0.03439581338743525 -0.01444483696483168  17.2251279777477 -0.6970054989682597 0.3380729825222267  17.20126000480063 -0.1929456468615409 0.7044120184376903  16.76696147076185 0.01377134702007246 0.3473388674521941  2.257602997825511 -1.937365159094686 0.469975159745859  2.322262577477282 -1.047609924556523 0.573785798857692  2.111651893669903 -1.48252658836948 0.1000336440514905  1.775779547127167 -1.339080075917705 0.4689562062839108  15.35895210158753 0.4602728221349679 -1.354434202376887  15.3333594687811 0.08000848585026427 -1.992119851948126  14.74480397842134 0.07618751144003111 -1.386813947465801  14.87802985464551 0.1999569788610417 -1.980305956540917  16.38363977037681 0.3591351827769452 -1.964628271853367  16.54476370666067 -0.001767981856132361 -1.542866219710064  16.81290848216476 -0.2758135936953686 -1.97283473209196  16.86294043569226 0.220716453894102 -1.978261326711953  14.10496574117252 0.1710172238401442 1.501367939115309  14.50480246469828 0.27850361898669 0.8182554498230449  13.76208888919575 0.3469775723611537 1.150034107106213  14.44054532991504 0.5471036225018612 1.367549398739232  5.023742006172142 0.9501125921875735 0.1207451720311115  5.448047798102235 0.8954757648360835 0.4108036519278451  5.24469336761423 1.405093680451357 0.0143157826330006  6.732443907035282 -1.450281017106601 -0.1884694994744183  6.953146888504273 -1.931774818920957 0.488404041536321  6.253923282606937 -1.990702543323044 0.09439866181254931  17.61666949728619 -1.308014120614388 -0.6662941018038387  17.90807588204208 -0.8620506590008178 -0.4813638410792598  17.25883282603383 -1.220735190843342 -0.2392863774854509  16.66172463284484 -0.9078196670016596 0.8402331852961932  16.553956572608 -1.291496209923834 1.514925090794849  10.0690662811758 -0.3654176882609638 1.110745699736968  10.14089389060112 0.1719182118970981 1.41043889578273  10.64244160110934 -0.1912918763205383 1.395161044773954  10.68898363332832 0.04072819478239512 0.8382997091732987  15.24906399858133 0.9306612513605415 -1.75940737465849  15.25107336155418 1.186744994302284 -0.8677386414355736  14.90358685112388 0.6687223770299302 -0.9716350232585116  4.426755526912554 -0.5241825677330839 -0.3550178349577726  4.489968204340704 -1.14240396223123 -0.8665621686384888  3.93507707693505 -0.8805582038006637 -0.6688272932067711  4.309897788131159 -0.5266921354914182 -0.912078706655278  1.977138000724876 1.485427152894105 -0.04966545425998908  1.44551974708248 1.324641786691852 -0.2522513042164342  1.41751263800029 1.981917560025788 0.1835940940818875  1.783779270188477 1.963957430006212 -0.3659463543542448  16.19093455576417 0.5899445442622586 1.416064504953993  15.6545708110199 0.3574933836621574 1.463400182170799  16.19532950706065 0.5082779015242156 1.925746149403153  15.68643502699351 0.7027492834813946 1.866753900629906  19.03219060422183 1.333997146053317 -0.4141706308542998  19.54048051559014 1.061967279874952 -0.3364388328098193  18.92394689886296 0.7485445150675948 -0.496391639748805  11.28020521707102 1.200157282519057 -0.3771637975139662  11.00893957632483 1.112991122961772 -1.002609701491911  10.82414062594093 1.490140876348394 -0.2200563687307889  3.35876748757884 1.01407
[...]
<PointData  Scalars="f_37"> 
<DataArray  type="Float64"  Name="f_37"  format="ascii">0.0000000000000000e+00  0.0000000000000000e+00  0.0000000000000000e+00  0.0000000000000000e+00  0.0000000000000000e+00  0.0000000000000000e+00  0.0000000000000000e+00  0.0000000000000000e+00  0.0000000000000000e+00  0.0000000000000000e+00  0.0000000000000000e+00  0.0000000000000000e+00  0.0000000000000000e+00  0.0000000000000000e+00  0.0000000000000000e+00  0.0000000000000000e+00  0.0000000000000000e+00  0.0000000000000000e+00  0.0000000000000000e+00  0.0000000000000000e+00  0.0000000000000000e+00  0.0000000000000000e+00  0.0000000000000000e+00  0.0000000000000000e+00  0.0000000000000000e+00  0.0000000000000000e+00  0.0000000000000000e+00  0.0000000000000000e+00  0.0000000000000000e+00  0.0000000000000000e+00  0.0000000000000000e+00  0.0000000000000000e+00  0.0000000000000000e+00  0.0000000000000000e+00  0.0000000000000000e+00  0.0000000000000000e+00  0.0000000000000000e+00  0.0000000000000000e+00  0.0000000000000000e+00  0.0000000000000000e+00  0.0000000000000000e+00  0.0000000000000000e+00  0.0000000000000000e+00  0.0000000000000000e+00  0.0000000000000000e+00  0.0000000000000000e+00  0.0000000000000000e+00  0.0000000000000000e+00  0.0000000000000000e+00  0.0000000000000000e+00  0.0000000000000000e+00  0.0000000000000000e+00  0.0000000000000000e+00  0.0000000000000000e+00  0.0000000000000000e+00  0.0000000000000000e+00  0.0000000000000000e+00  0.0000000000000000e+00  0.0000000000000000e+00  0.0000000000000000e+00  0.0000000000000000e+00  0.0000000000000000e+00  0.0000000000000000e+00  0.0000000000000000e+00  0.0000000000000000e+00  0.0000000000000000e+00  0.0000000000000000e+00  0.0000000000000000e+00  0.0000000000000000e+00  0.0000000000000000e+00  0.0000000000000000e+00  0.0000000000000000e+00  0.0000000000000000e+00  0.0000000000000000e+00  0.0000000000000000e+00  0.0000000000000000e+00  0.0000000000000000e+00  0.0000000000000000e+00  0.0000000000000000e+00  0.0000000000000000e+00  0.0000000000000000e+00  0.0000000000000000e+00  0.0000000000000000e+00  0.0000000000000000e+00  0.0000000000000000e+00  0.0000000000000000e+00  0.0000000000000000e+00  0.0000000000000000e+00  0.0000000000000000e+00  0.0000000000000000e+00  0.0000000000000000e+00  0.0000000000000000e+00  0.0000000000000000e+00  0.0000000000000000e+00  0.0000000000000000e+00  0.0000000000000000e+00  0.0000000000000000e+00  0.0000000000000000e+00  0.0000000000000000e+00  0.0000000000000000e+00  0.0000000000000000e+00  0.0000000000000000e+00  0.0000000000000000e+00  0.0000000000000000e+00  0.0000000000000000e+00  0.0000000000000000e+00  0.0000000000000000e+00  0.0000000000000000e+00  0.0000000000000000e+00  0.0000000000000000e+00  0.0000000000000000e+00  0.0000000000000000e+00  0.0000000000000000e+00  0.0000000000000000e+00  0.0000000000000000e+00  0.0000000000000000e+00  0.0000000000000000e+00  0.0000000000000000e+00  0.0000000000000000e+00  0.0000000000000000e+00  0.0000000000000000e+00  0.0000000000000000e+00  0.0000000000000000e+00  0.0000000000000000e+00  0.0000000000000000e+00  0.0000000000000000e+00  0.0000000000000000e+00  0.0000000000000000e+00  0.0000000000000000e+00  0.0000000000000000e+00  0.0000000000000000e+00  0.0000000000000000e+00  0.0000000000000000e+00  0.0000000000000000e+00  0.0000000000000000e+00  0.0000000000000000e+00  0.0000000000000000e+00  0.0000000000000000e+00  0.0000000000000000e+00  0.0000000000000000e+00  0.0000000000000000e+00  0.0000000000000000e+00  0.0000000000000000e+00  0.0000000000000000e+00  0.0000000000000000e+00  0.0000000000000000e+00  0.0000000000000000e+00  0.0000000000000000e+00  0.0000000000000000e+00  0.0000000000000000e+00  0.0000000000000000e+00  0.0000000000000000e+00  0.0000000000000000e+00  0.0000000000000000e+00  0.0000000000000000e+00  0.0000000000000000e+00  0.0000000000000000e+00  0.0000000000000000e+00  0.0000000000000000e+00  0.0000000000000000e+00  0.0000000000000000e+00  0.0000000000000000e+00  0.0000000000000000e+00  0.0000000000000000e+00  0.0000000000000000e+00  0.0000000000000000e+00  0.0000000000000000e+00  0.0000000000000000e+00  0.0000000000000000e+00  0.0000000000000000e+00  0.0000000000000000e+00  0.0000000000000000e+00  0.0000000000000000e+00  0.0000000000000000e+00  0.0000000000000000e+00  0.0000000000000000e+00  0.0000000000000000e+00  0.0000000000000000e+00  0.0000000000000000e+00  0.0000000000000000e+00  0.0000000000000000e+00  0.0000000000000000e+00  0.0000000000000000e+00  0.0000000000000000e+00  0.0000000000000000e+00  0.0000000000000000e+00  0.0000000000000000e+00  0.0000000000000000e+00  0.0000000000000000e+00  0.0000000000000000e+00  0.0000000000000000e+00  0.0000000000000000e+00  0.0000000000000000e+00  0.0000000000000000e+00  0.0000000000000000e+00  0.0000000000000000e+00  0.0000000000000000e+00  0.0000000000000000e+00  0.0000000000000000e+00  0.0000000000000000e+00  0.0000000000000000e+00  0.0000000000000000e+00  0.0000000000000000e+00  0.0000000000000000e+00  0.0000000000000000e+00  0.0000000000000000e+00  0.0000000000000000e+00  0.0000000000000000e+00  0.0000000000000000e+00  0.0000000000000000e+00  0.0000000000000000e+00  0.0000000000000000e+00  0.0000000000000000e+00  0.0000000000000000e+00  0.0000000000000000e+00  0.0000000000000000e+00  0.0000000000000000e+00  0.0000000000000000e+00  0.0000000000000000e+00  0.0000000000000000e+00  0.0000000000000000e+00  0.0000000000000000e+00  0.0000000000000000e+00  0.0000000000000000e+00  0.0000000000000000e+00  0.0000000000000000e+00  0.0000000000000000e+00  0.0000000000000000e+00  0.0000000000000000e+00  0.0000000000000000e+00  0.0000000000000000e+00  0.0000000000000000e+00  0.0000000000000000e+00  0.0000000000000000e+00  0.0000000000000000e+00  0.0000000000000000e+00  0.0000000000000000e+00  0.0000000000000000e+00  0.0000000000000000e+00  0.0000000000000000e+00  0.0000000000000000e+00  0.0000000000000000e+00  0.0000000000000000e+00  0.0000000000000000e+00  0.0000000000000000e+00  0.0000000000000000e+00  0.0000000000000000e+00  0.0000000000000000e+00  0.0000000000000000e+00  0.0000000000000000e+00  0.0000000000000000e+00  0.0000000000000000e+00  0.0000000000000000e+00  0.0000000000000000e+00  0.0000000000000000e+00  0.0000000000000000e+00  0.0000000000000000e+00  0.0000000000000000e+00  0.0000000000000000e+00  0.0000000000000000e+00  0.0000000000000000e+00  0.0000000000000000e+00  0.0000000000000000e+00  0.0000000000000000e+00  0.0000000000000000e+00  0.0000000000000000e+00  0.0000000000000000e+00  0.0000000000000000e+00  0.0000000000000000e+00  0.0000000000000000e+00  0.0000000000000000e+00  0.0000000000000000e+00  0.0000000000000000e+00  0.0000000000000000e+00  0.0000000000000000e+00  0.0000000000000000e+00  0.0000000000000000e+00  0.0000000000000000e+00  0.0000000000000000e+00  0.0000000000000000e+00  0.0000000000000000e+00  0.0000000000000000e+00  0.0000000000000000e+00  0.0000000000000000e+00  0.0000000000000000e+00  0.0000000000000000e+00  0.0000000000000000e+00  0.0000000000000000e+00  0.0000000000000000e+00  0.0000000000000000e+00  0.0000000000000000e+00  0.0000000000000000e+00  0.0000000000000000e+00  0.0000000000000000e+00  0.0000000000000000e+00  0.0000000000000000e+00  0.0000000000000000e+00  0.0000000000000000e+00  0.0000000000000000e+00  0.0000000000000000e+00  0.0000000000000000e+00  0.0000000000000000e+00  0.0000000000000000e+00  0.0000000000000000e+00  0.0000000000000000e+00  0.0000000000000000e+00  0.0000000000000000e+00  0.0000000000000000e+00  0.0000000000000000e+00  0.0000000000000000e+00  0.0000000000000000e+00  0.0000000000000000e+00  0.0000000000000000e+00  0.0000000000000000e+00  0.0000000000000000e+00  0.0000000000000000e+00  0.0000000000000000e+00  0.0000000000000000e+00  0.0000000000000000e+00  0.0000000000000000e+00  0.0000000000000000e+00  0.0000000000000000e+00  0.0000000000000000e+00  0.0000000000000000e+00  0.0000000000000000e+00  0.0000000000000000e+00  0.0000000000000000e+00  0.0000000000000000e+00  0.0000000000000000e+00  0.0000000000000000e+00  0.0000000000000000e+00  0.0000000000000000e+00  0.0000000000000000e+00  0.0000000000000000e+00  0.0000000000000000e+00  0.0000000000000000e+00  0.0000000000000000e+00  0.0000000000000000e+00  0.0000000000000000e+00  0.0000000000000000e+00  0.0000000000000000e+00  0.0000000000000000e+00  0.0000000000000000e+00  0.0000000000000000e+00  0.0000000000000000e+00  0.0000000000000000e+00  0.0000000000000000e+00  0.0000000000000000e+00  0.0000000000000000e+00  0.0000000000000000e+00  0.0000000000000000e+00  0.0000000000000000e+00  0.0000000000000000e+00  0.0000000000000000e+00  0.0000000000000000e+00  0.0000000000000000e+00  0.0000000000000000e+00  0.0000000000000000e+00  0.0000000000000000e+00  0.0000000000000000e+00  0.0000000000000000e+00  0.0000000000000000e+00  0.0000000000000000e+00  0.0000000000000000e+00  0.0000000000000000e+00  0.0000000000000000e+00  0.0000000000000000e+00  0.0000000000000000e+00  0.0000000000000000e+00  0.0000000000000000e+00  0.0000000000000000e+00  0.0000000000000000e+00  0.0000000000000000e+00  0.0000000000000000e+00  0.0000000000000000e+00  0.0000000000000000e+00  0.0000000000000000e+00  0.0000000000000000e+00  0.0000000000000000e+00  0.0000000000000000e+00  0.0000000000000000e+00  0.0000000000000000e+00  0.0000000000000000e+00  0.0000000000000000e+00  0.0000000000000000e+00  0.0000000000000000e+00  0.0000000000000000e+00  0.0000000000000000e+00  0.0000000000000000e+00  0.0000000000000000e+00  0.0000000000000000e+00  0.0000000000000000e+00  0.0000000000000000e+00  0.0000000000000000e+00  0.0000000000000000e+00  0.0000000000000000e+00  0.0000000000000000e+00  0.0000000000000000e+00  0.0000000000000000e+00  0.0000000000000000e+00  0.0000000000000000e+00  0.0000000000000000e+00  0.0000000000000000e+00  0.0000000000000000e+00  0.0000000000000000e+00  0.0000000000000000e+00  0.0000000000000000e+00  0.0000000000000000e+00  0.0000000000000000e+00  0.0000000000000000e+00  0.0000000000000000e+00  0.0000000000000000e+00  0.0000000000000000e+00  0.0000000000000000e+00  0.0000000000000000e+00  0.0000000000000000e+00  0.0000000000000000e+00  0.0000000000000000e+00  0.0000000000000000e+00  0.0000000000000000e+00  0.0000000000000000e+00  0.0000000000000000e+00  0.0000000000000000e+00  0.0000000000000000e+00  0.0000000000000000e+00  0.0000000000000000e+00  0.0000000000000000e+00  0.0000000000000000e+00  0.0000000000000000e+00  0.0000000000000000e+00  0.0000000000000000e+00  0.0000000000000000e+00  0.0000000000000000e+00  0.0000000000000000e+00  0.0000000000000000e+00  0.0000000000000000e+00  0.0000000000000000e+00  0.0000000000000000e+00  0.0000000000000000e+00  0.0000000000000000e+00  0.0000000000000000e+00  0.0000000000000000e+00  0.0000000000000000e+00  0.0000000000000000e+00  0.0000000000000000e+00  0.0000000000000000e+00  0.0000000000000000e+00  0.0000000000000000e+00  0.0000000000000000e+00  0.0000000000000000e+00  0.0000000000000000e+00  0.0000000000000000e+00  0.0000000000000000e+00  0.0000000000000000e+00  0.0000000000000000e+00  0.0000000000000000e+00  0.0000000000000000e+00  0.0000000000000000e+00  0.0000000000000000e+00  0.0000000000000000e+00  0.0000000000000000e+00  0.0000000000000000e+00  0.0000000000000000e+00  0.0000000000000000e+00  0.0000000000000000e+00  0.0000000000000000e+00  0.0000000000000000e+00  0.0000000000000000e+00  0.0000000000000000e+00  0.0000000000000000e+00  0.0000000000000000e+00  0.0000000000000000e+00  0.0000000000000000e+00  0.0000000000000000e+00  0.0000000000000000e+00  0.0000000000000000e+00  0.0000000000000000e+00  0.0000000000000000e+00  0.0000000000000000e+00  0.0000000000000000e+00  0.0000000000000000e+00  0.0000000000000000e+00  0.0000000000000000e+00  0.0000000000000000e+00  0.0000000000000000e+00  0.0000000000000000e+00  0.0000000000000000e+00  0.0000000000000000e+00  0.0000000000000000e+00  0.0000000000000000e+00  0.0000000000000000e+00  0.0000000000000000e+00  0.0000000000000000e+00  0.0000000000000000e+00  0.0000000000000000e+00  0.0000000000000000e+00  0.0000000000000000e+00  0.0000000000000000e+00  0.0000000000000000e+00  0.0000000000000000e+00  0.0000000000000000e+00  0.0000000000000000e+00  0.0000000000000000e+00  0.0000000000000000e+00  0.0000000000000000e+00  0.0000000000000000e+00  0.0000000000000000e+00  0.0000000000000000e+00  0.0000000000000000e+00  0.0000000000000000e+00  0.0000000000000000e+00  0.0000000000000000e+00  0.0000000000000000e+00  0.0000000000000000e+00  0.0000000000000000e+00  0.0000000000000000e+00  0.0000000000000000e+00  0.0000000000000000e+00  0.0000000000000000e+00  0.0000000000000000e+00  0.0000000000000000e+00  0.0000000000000000e+00  0.0000000000000000e+00  0.0000000000000000e+00  0.0000000000000000e+00  0.0000000000000000e+00  0.0000000000000000e+00  0.0000000000000000e+00  0.0000000000000000e+00  0.0000000000000000e+00  0.0000000000000000e+00  0.0000000000000000e+00  0.0000000000000000e+00  0.0000000000000000e+00  0.0000000000000000e+00  0.0000000000000000e+00  0.0000000000000000e+00  0.0000000000000000e+00  0.0000000000000000e+00  0.0000000000000000e+00  0.0000000000000000e+00  0.0000000000000000e+00  0.0000000000000000e+00  0.0000000000000000e+00  0.0000000000000000e+00  0.0000000000000000e+00  0.0000000000000000e+00  0.0000000000000000e+00  0.0000000000000000e+00  0.0000000000000000e+00  0.0000000000000000e+00  0.0000000000000000e+00  0.0000000000000000e+00  0.0000000000000000e+00  0.0000000000000000e+00  0.0000000000000000e+00  0.0000000000000000e+00  0.0000000000000000e+00  0.0000000000000000e+00  0.0000000000000000e+00  0.0000000000000000e+00  0.0000000000000000e+00  0.0000000000000000e+00  0.0000000000000000e+00  0.0000000000000000e+00  0.0000000000000000e+00  0.0000000000000000e+00  0.0000000000000000e+00  0.0000000000000000e+00  0.0000000000000000e+00  0.0000000000000000e+00  0.0000000000000000e+00  0.0000000000000000e+00  0.0000000000000000e+00  0.0000000000000000e+00  0.0000000000000000e+00  0.0000000000000000e+00  0.0000000000000000e+00  0.0000000000000000e+00  0.0000000000000000e+00  0.0000000000000000e+00  0.0000000000000000e+00  0.0000000000000000e+00  0.0000000000000000e+00  0.0000000000000000e+00  0.0000000000000000e+00  0.0000000000000000e+00  0.0000000000000000e+00  0.0000000000000000e+00  0.0000000000000000e+00  0.0000000000000000e+00  0.0000000000000000e+00  0.0000000000000000e+00  0.0000000000000000e+00  0.0000000000000000e+00  0.0000000000000000e+00  0.0000000000000000e+00  0.0000000000000000e+00  0.0000000000000000e+00  0.0000000000000000e+00  0.0000000000000000e+00  0.0000000000000000e+00  0.0000000000000000e+00  0.0000000000000000e+00  0.0000000000000000e+00  0.0000000000000000e+00  0.0000000000000000e+00  0.0000000000000000e+00  0.0000000000000000e+00  0.0000000000000000e+00  0.0000000000000000e+00  0.0000000000000000e+00  0.0000000000000000e+00  0.0000000000000000e+00  0.0000000000000000e+00  0.0000000000000000e+00  0.0000000000000000e+00  0.0000000000000000e+00  0.0000000000000000e+00  0.0000000000000000e+00  0.0000000000000000e+00  0.0000000000000000e+00  0.0000000000000000e+00  0.0000000000000000e+00  0.0000000000000000e+00  0.0000000000000000e+00  0.0000000000000000e+00  0.0000000000000000e+00  0.0000000000000000e+00  0.0000000000000000e+00  0.0000000000000000e+00  0.0000000000000000e+00  0.0000000000000000e+00  0.0000000000000000e+00  0.0000000000000000e+00  0.0000000000000000e+00  0.0000000000000000e+00  0.0000000000000000e+00  0.0000000000000000e+00  0.0000000000000000e+00  0.0000000000000000e+00  0.0000000000000000e+00  0.0000000000000000e+00  0.0000000000000000e+00  0.0000000000000000e+00  0.0000000000000000e+00  0.0000000000000000e+00  0.0000000000000000e+00  0.0000000000000000e+00  0.0000000000000000e+00  0.0000000000000000e+00  0.0000000000000000e+00  0.0000000000000000e+00  0.0000000000000000e+00  0.0000000000000000e+00  0.0000000000000000e+00  0.0000000000000000e+00  0.0000000000000000e+00  0.0000000000000000e+00  0.0000000000000000e+00  0.0000000000000000e+00  0.0000000000000000e+00  0.0000000000000000e+00  0.0000000000000000e+00  0.0000000000000000e+00  0.0000000000000000e+00  0.0000000000000000e+00  0.0000000000000000e+00  0.0000000000000000e+00  0.0000000000000000e+00  0.0000000000000000e+00  0.0000000000000000e+00  0.0000000000000000e+00  0.0000000000000000e+00  0.0000000000000000e+00  0.0000000000000000e+00  0.0000000000000000e+00  0.0000000000000000e+00  0.0000000000000000e+00  0.0000000000000000e+00  0.0000000000000000e+00  0.0000000000000000e+00  0.0000000000000000e+00  0.0000000000000000e+00  0.0000000000000000e+00  0.0000000000000000e+00  0.0000000000000000e+00  0.0000000000000000e+00  0.0000000000000000e+00  0.0000000000000000e+00  0.0000000000000000e+00  0.0000000000000000e+00  0.0000000000000000e+00  0.0000000000000000e+00  0.0000000000000000e+00  0.0000000000000000e+00  0.0000000000000000e+00  0.0000000000000000e+00  0.0000000000000000e+00  0.0000000000000000e+00  0.0000000000000000e+00  0.0000000000000000e+00  0.0000000000000000e+00  0.0000000000000000e+00  0.0000000000000000e+00  0.0000000000000000e+00  0.0000000000000000e+00  0.0000000000000000e+00  0.0000000000000000e+00  0.0000000000000000e+00  0.0000000000000000e+00  0.0000000000000000e+00  0.0000000000000000e+00  0.0000000000000000e+00  0.0000000000000000e+00  0.0000000000000000e+00  0.0000000000000000e+00  0.0000000000000000e+00  0.0000000000000000e+00  0.0000000000000000e+00  0.0000000000000000e+00  0.0000000000000000e+00  0.0000000000000000e+00  0.0000000000000000e+00  0.0000000000000000e+00  0.0000000000000000e+00  0.0000000000000000e+00  0.0000000000000000e+00  0.0000000000000000e+00  0.0000000000000000e+00  0.0000000000000000e+00  0.0000000000000000e+00  0.0000000000000000e+00  0.0000000000000000e+00  0.0000000000000000e+00  0.0000000000000000e+00  0.0000000000000000e+00  0.0000000000000000e+00  0.0000000000000000e+00  0.0000000000000000e+00  0.0000000000000000e+00  0.0000000000000000e+00  0.0000000000000000e+00  0.0000000000000000e+00  0.0000000000000000e+00  0.0000000000000000e+00  0.0000000000000000e+00  0.0000000000000000e+00  0.0000000000000000e+00  0.0000000000000000e+00  0.0000000000000000e+00  0.0000000000000000e+00  0.0000000000000000e+00  0.0000000000000000e+00  0.0000000000000000e+00  0.0000000000000000e+00  0.0000000000000000e+00  0.0000000000000000e+00  0.0000000000000000e+00  0.0000000000000000e+00  0.0000000000000000e+00  0.0000000000000000e+00  0.0000000000000000e+00  0.0000000000000000e+00  0.0000000000000000e+00  0.0000000000000000e+00  0.0000000000000000e+00  0.0000000000000000e+00  0.0000000000000000e+00  0.0000000000000000e+00  0.0000000000000000e+00  0.0000000000000000e+00  0.0000000000000000e+00  0.0000000000000000e+00  0.0000000000000000e+00  0.0000000000000000e+00  0.0000000000000000e+00  0.0000000000000000e+00  0.0000000000000000e+00  0.0000000000000000e+00  0.0000000000000000e+00  0.0000000000000000e+00  0.0000000000000000e+00  0.0000000000000000e+00  0.0000000000000000e+00  0.0000000000000000e+00  0.0000000000000000e+00  0.0000000000000000e+00  0.0000000000000000e+00  0.0000000000000000e+00  0.0000000000000000e+00  0.0000000000000000e+00  0.0000000000000000e+00  0.0000000000000000e+00  0.0000000000000000e+00  0.0000000000000000e+00  0.0000000000000000e+00  0.0000000000000000e+00  0.0000000000000000e+00  0.0000000000000000e+00  0.0000000000000000e+00  0.0000000000000000e+00  0.0000000000000000e+00  0.0000000000000000e+00  0.0000000000000000e+00  0.0000000000000000e+00  0.0000000000000000e+00  0.0000000000000000e+00  0.0000000000000000e+00  0.0000000000000000e+00  0.0000000000000000e+00  0.0000000000000000e+00  0.0000000000000000e+00  0.0000000000000000e+00  0.0000000000000000e+00  0.0000000000000000e+00  0.0000000000000000e+00  0.0000000000000000e+00  0.0000000000000000e+00  0.0000000000000000e+00  0.0000000000000000e+00  0.0000000000000000e+00  0.0000000000000000e+00  0.0000000000000000e+00  0.0000000000000000e+00  0.0000000000000000e+00  0.0000000000000000e+00  0.0000000000000000e+00  0.0000000000000000e+00  0.0000000000000000e